 Gaussian 16, Revision C.01,
 Gaussian 16:  ES64L-G16RevC.01  3-Jul-2019

 -------------------------
 # freq b3lyp/6-31g(2df,p)
 -------------------------

 -------------------------------------------------------------------
 energy: -15.614184499692 gnorm: 0.000439253721 xtb: 6.6.1 (8d0f1dd)
 -------------------------------------------------------------------
 Symbolic Z-matrix:
 Charge =  0 Multiplicity = 1

                         Standard orientation:
 ---------------------------------------------------------------------
 Center     Atomic      Atomic             Coordinates (Angstroms)
 Number     Number       Type             X           Y           Z
 ---------------------------------------------------------------------
      1          6           0       -0.579755    0.484123    0.206781
      2          1           0       -0.751092    0.935920    1.194290
      3          1           0       -0.331436    1.293211   -0.496823
      4          6           0        0.621070   -0.464608    0.230878
      5          1           0        0.397595   -1.310868   -0.429271
      6          1           0        0.835037   -0.844777    1.235756
      7          9           0        1.745072    0.182896   -0.239079
      8          8           0       -1.702477   -0.265701   -0.228536
      9          1           0       -2.483831    0.288964   -0.149906
 ---------------------------------------------------------------------

 SCF Done:  E(RB3LYP) =  -254.277776512     A.U. after   11 cycles

 The electronic state is 1-A.
 Alpha  occ. eigenvalues --  -24.66526 -19.14350 -10.25111 -10.23460  -1.18007
 Alpha  occ. eigenvalues --   -1.02450  -0.74534  -0.62125  -0.52998  -0.49835
 Alpha  occ. eigenvalues --   -0.45878  -0.45349  -0.42325  -0.36459  -0.32949
 Alpha  occ. eigenvalues --   -0.32110  -0.27551
 Alpha virt. eigenvalues --    0.06483   0.10280   0.13969   0.14754   0.15851
 Alpha virt. eigenvalues --    0.19854   0.22228   0.25094   0.42518   0.47196
 Alpha virt. eigenvalues --    0.48475   0.51034   0.54692   0.63768   0.67027

 Mulliken charges:
               1
     1  C   -0.093391
     2  H    0.094895
     3  H    0.105460
     4  C   -0.045267
     5  H    0.119487
     6  H    0.104335
     7  F   -0.158903
     8  O   -0.417978
     9  H    0.291362
 Sum of Mulliken charges =  -0.00000

 Dipole moment (field-independent basis, Debye):
    X=             -1.5950    Y=              0.7314    Z=              0.9633  Tot=              2.0017
 Quadrupole moment (field-independent basis, Debye-Ang):
   XX=            -23.4602   YY=            -23.0096   ZZ=            -23.2722
   XY=             -3.6830   XZ=              0.1911   YZ=             -0.1975

  Exact polarizability:      31.585      -0.823      27.458       0.479       0.234      25.881
 Approx polarizability:      39.872       0.933      37.424       0.016       0.511      35.299

 ******    1 imaginary frequencies (negative Signs) ******

                      1                      2                      3
                      A                      A                      A
 Frequencies --    -91.9380               252.2003               351.6564
 Red. masses --      2.9181                 1.1172                 3.0344
 Frc consts  --      0.0145                 0.0419                 0.2211
 IR Inten    --      3.6502               111.8870                18.2836

                      4                      5                      6
                      A                      A                      A
 Frequencies --    454.6046               833.1911              1005.6149
 Red. masses --      5.8403                 1.2883                 2.7540
 Frc consts  --      0.7111                 0.5269                 1.6409
 IR Inten    --      1.6059                 4.1139                32.4179

                      7                      8                      9
                      A                      A                      A
 Frequencies --   1069.2893              1104.9775              1149.0920
 Red. masses --      5.7461                 4.2116                 1.7367
 Frc consts  --      3.8709                 3.0298                 1.3511
 IR Inten    --    137.1816                12.6667                 3.8208

                     10                     11                     12
                      A                      A                      A
 Frequencies --   1249.6360              1256.3141              1285.2605
 Red. masses --      1.1194                 1.1692                 1.0750
 Frc consts  --      1.0299                 1.0873                 1.0463
 IR Inten    --      3.9701                38.6094                13.4676

                     13                     14                     15
                      A                      A                      A
 Frequencies --   1399.6326              1469.1462              1508.9878
 Red. masses --      1.2644                 1.4624                 1.0830
 Frc consts  --      1.4594                 1.8597                 1.4529
 IR Inten    --      7.9039                 4.0179                 0.3784

                     16                     17                     18
                      A                      A                      A
 Frequencies --   1525.2393              2984.4066              3018.8354
 Red. masses --      1.0847                 1.0552                 1.1035
 Frc consts  --      1.4867                 5.5372                 5.9250
 IR Inten    --      5.7875                45.4121                32.9783

                     19                     20                     21
                      A                      A                      A
 Frequencies --   3035.8597              3087.1015              3834.6800
 Red. masses --      1.0587                 1.1099                 1.0664
 Frc consts  --      5.7491                 6.2323                 9.2389
 IR Inten    --     39.3304                47.2847                24.3985

 - Thermochemistry -
 -------------------
 Temperature   298.150 Kelvin.  Pressure   1.00000 Atm.
 Atom     1 has atomic number  6 and mass  12.00000

 Molecular mass:    64.03244 amu.
 Principal axes and moments of inertia in atomic units:
                           1         2         3
     Eigenvalues --    66.52138 453.35566 473.71920
           X            0.99949  -0.03118   0.00729
           Y            0.03121   0.99950  -0.00434
           Z           -0.00715   0.00457   0.99996
 This molecule is an asymmetric top.
 Rotational symmetry number  1.
 Rotational temperatures (Kelvin)      1.30205     0.19105     0.18284
 Rotational constants (GHZ):          27.13024     3.98085     3.80973
    1 imaginary frequencies ignored.
 Zero-point vibrational energy     190659.2 (Joules/Mol)
                                   45.56864 (Kcal/Mol)
 Warning -- explicit consideration of   3 degrees of freedom as
           vibrations may cause significant error
 Vibrational temperatures:    362.86   505.96   654.07  1198.78  1446.86
          (Kelvin)           1538.47  1589.82  1653.29  1797.95  1807.56
                             1849.20  2013.76  2113.77  2171.10  2194.48
                             4293.90  4343.43  4367.93  4441.65  5517.25

 Zero-point correction=                           0.072618 (Hartree/Particle)
 Thermal correction to Energy=                    0.076793
 Thermal correction to Enthalpy=                  0.077737
 Thermal correction to Gibbs Free Energy=         0.045988
 Sum of electronic and zero-point Energies=           -254.205158
 Sum of electronic and thermal Energies=              -254.200983
 Sum of electronic and thermal Enthalpies=            -254.200039
 Sum of electronic and thermal Free Energies=         -254.231789

                     E (Thermal)             CV                S
                      KCal/Mol        Cal/Mol-Kelvin    Cal/Mol-Kelvin
 Total                   48.189             13.268             66.822
 Electronic               0.000              0.000              0.000
 Translational            0.889              2.981             38.389
 Rotational               0.889              2.981             24.172
 Vibrational             46.411              7.306              4.261
 Vibration     1          0.664              1.759              1.715
 Vibration     2          0.728              1.572              1.159
 Vibration     3          0.813              1.351              0.782

 Normal termination of Gaussian 16 at Thu Dec  5 18:23:59 2024.
