 Gaussian 16, Revision C.01,
 Gaussian 16:  ES64L-G16RevC.01  3-Jul-2019

 -------------------------
 # freq b3lyp/6-31g(2df,p)
 -------------------------

 -------------------------------------------------------------------
 energy: -15.614184499692 gnorm: 0.000439253721 xtb: 6.6.1 (8d0f1dd)
 -------------------------------------------------------------------
 Symbolic Z-matrix:
 Charge =  0 Multiplicity = 1

                         Standard orientation:
 ---------------------------------------------------------------------
 Center     Atomic      Atomic             Coordinates (Angstroms)
 Number     Number       Type             X           Y           Z
 ---------------------------------------------------------------------
      1          6           0       -0.726593    0.649754   -0.092752
      2          1           0       -1.140363    1.368949    0.630886
      3          1           0       -0.958273    1.032605   -1.099703
      4          6           0        0.805337    0.588738    0.096559
      5          1           0        1.074759    0.904367    1.112492
      6          1           0        1.303967    1.258623   -0.614330
      7          9           0        1.274088   -0.688438   -0.072272
      8          8           0       -1.251246   -0.651522    0.071833
      9          1           0       -2.209374   -0.587379    0.023594
 ---------------------------------------------------------------------

 SCF Done:  E(RB3LYP) =  -254.272314028     A.U. after   12 cycles

 The electronic state is 1-A.
 Alpha  occ. eigenvalues --  -24.66167 -19.13834 -10.25334 -10.23580  -1.17855
 Alpha  occ. eigenvalues --   -1.02045  -0.74487  -0.61778  -0.52744  -0.49672
 Alpha  occ. eigenvalues --   -0.46693  -0.44595  -0.42278  -0.35497  -0.32730
 Alpha  occ. eigenvalues --   -0.32080  -0.26807
 Alpha virt. eigenvalues --    0.06158   0.10963   0.12486   0.13266   0.16455
 Alpha virt. eigenvalues --    0.21258   0.22499   0.25433   0.42327   0.47675
 Alpha virt. eigenvalues --    0.49294   0.50292   0.53218   0.60954   0.65537

 Mulliken charges:
               1
     1  C   -0.097018
     2  H    0.092200
     3  H    0.091409
     4  C   -0.046620
     5  H    0.101882
     6  H    0.102014
     7  F   -0.135898
     8  O   -0.398643
     9  H    0.290672
 Sum of Mulliken charges =  -0.00000

 Dipole moment (field-independent basis, Debye):
    X=             -1.5666    Y=              2.4052    Z=             -0.0120  Tot=              2.8704
 Quadrupole moment (field-independent basis, Debye-Ang):
   XX=            -19.7939   YY=            -24.2894   ZZ=            -23.2715
   XY=              1.3206   XZ=              0.3330   YZ=              0.0778

  Exact polarizability:      30.939       1.285      28.347       0.216      -0.225      25.921
 Approx polarizability:      37.776       0.289      39.974      -0.146      -0.239      35.134

 ******    1 imaginary frequencies (negative Signs) ******

                      1                      2                      3
                      A                      A                      A
 Frequencies --   -159.9606               236.4125               286.7407
 Red. masses --      2.0402                 1.0884                 8.1769
 Frc consts  --      0.0308                 0.0358                 0.3961
 IR Inten    --      0.3599               118.2469                 0.8759

                      4                      5                      6
                      A                      A                      A
 Frequencies --    584.4004               862.6986               905.3369
 Red. masses --      3.9931                 1.2950                 3.1085
 Frc consts  --      0.8035                 0.5679                 1.5011
 IR Inten    --     24.2639                 8.8678                 8.2100

                      7                      8                      9
                      A                      A                      A
 Frequencies --   1104.4393              1118.0105              1169.1296
 Red. masses --      4.2114                 4.4110                 1.8326
 Frc consts  --      3.0267                 3.2484                 1.4759
 IR Inten    --     13.2787               148.1043                18.1199

                     10                     11                     12
                      A                      A                      A
 Frequencies --   1225.7313              1282.9862              1300.2373
 Red. masses --      1.1150                 1.1143                 1.1140
 Frc consts  --      0.9870                 1.0807                 1.1097
 IR Inten    --     14.1767                 7.6338                 9.4441

                     13                     14                     15
                      A                      A                      A
 Frequencies --   1433.6356              1470.0378              1514.8259
 Red. masses --      1.2625                 1.4209                 1.0859
 Frc consts  --      1.5289                 1.8091                 1.4681
 IR Inten    --     15.3245                 0.4912                 1.6232

                     16                     17                     18
                      A                      A                      A
 Frequencies --   1530.1440              2964.3793              2991.3976
 Red. masses --      1.0784                 1.0588                 1.1010
 Frc consts  --      1.4876                 5.4819                 5.8045
 IR Inten    --      1.4690                57.2056                35.0392

                     19                     20                     21
                      A                      A                      A
 Frequencies --   3021.2650              3064.9988              3834.3221
 Red. masses --      1.0578                 1.1089                 1.0664
 Frc consts  --      5.6891                 6.1375                 9.2376
 IR Inten    --     59.6366                62.6034                24.1371

 - Thermochemistry -
 -------------------
 Temperature   298.150 Kelvin.  Pressure   1.00000 Atm.
 Atom     1 has atomic number  6 and mass  12.00000

 Molecular mass:    64.03244 amu.
 Principal axes and moments of inertia in atomic units:
                           1         2         3
     Eigenvalues --   121.31953 298.53958 393.88242
           X            0.99914   0.04035   0.00985
           Y           -0.04032   0.99918  -0.00275
           Z           -0.00996   0.00235   0.99995
 This molecule is an asymmetric top.
 Rotational symmetry number  1.
 Rotational temperatures (Kelvin)      0.71393     0.29013     0.21990
 Rotational constants (GHZ):          14.87593     6.04523     4.58193
    1 imaginary frequencies ignored.
 Zero-point vibrational energy     190811.1 (Joules/Mol)
                                   45.60495 (Kcal/Mol)
 Warning -- explicit consideration of   3 degrees of freedom as
           vibrations may cause significant error
 Vibrational temperatures:    340.14   412.56   840.82  1241.23  1302.58
          (Kelvin)           1589.04  1608.57  1682.12  1763.55  1845.93
                             1870.75  2062.68  2115.06  2179.50  2201.54
                             4265.08  4303.95  4346.93  4409.85  5516.73

 Zero-point correction=                           0.072676 (Hartree/Particle)
 Thermal correction to Energy=                    0.076861
 Thermal correction to Enthalpy=                  0.077805
 Thermal correction to Gibbs Free Energy=         0.045986
 Sum of electronic and zero-point Energies=           -254.199638
 Sum of electronic and thermal Energies=              -254.195453
 Sum of electronic and thermal Enthalpies=            -254.194509
 Sum of electronic and thermal Free Energies=         -254.226328

                     E (Thermal)             CV                S
                      KCal/Mol        Cal/Mol-Kelvin    Cal/Mol-Kelvin
 Total                   48.231             13.133             66.969
 Electronic               0.000              0.000              0.000
 Translational            0.889              2.981             38.389
 Rotational               0.889              2.981             24.171
 Vibrational             46.454              7.171              4.409
 Vibration     1          0.655              1.785              1.830
 Vibration     2          0.684              1.698              1.493
 Vibration     3          0.941              1.065              0.477

 Normal termination of Gaussian 16 at Thu Dec  5 18:22:50 2024.
