 Gaussian 16, Revision C.01,
 Gaussian 16:  ES64L-G16RevC.01  3-Jul-2019

 -------------------------
 # freq b3lyp/6-31g(2df,p)
 -------------------------

 -------------------------------------------------------------------
 energy: -15.614184499692 gnorm: 0.000439253721 xtb: 6.6.1 (8d0f1dd)
 -------------------------------------------------------------------
 Symbolic Z-matrix:
 Charge =  0 Multiplicity = 1

                         Standard orientation:
 ---------------------------------------------------------------------
 Center     Atomic      Atomic             Coordinates (Angstroms)
 Number     Number       Type             X           Y           Z
 ---------------------------------------------------------------------
      1          6           0        0.673656    0.575358   -0.259041
      2          1           0        0.641033    0.605175   -1.359539
      3          1           0        1.133272    1.516148    0.088347
      4          6           0       -0.744165    0.523606    0.271319
      5          1           0       -1.300177    1.408999   -0.063246
      6          1           0       -0.732458    0.502627    1.368535
      7          9           0       -1.382689   -0.610826   -0.173041
      8          8           0        1.361896   -0.567853    0.206754
      9          1           0        2.230422   -0.586479   -0.204429
 ---------------------------------------------------------------------

 SCF Done:  E(RB3LYP) =  -254.280728454     A.U. after   12 cycles

 The electronic state is 1-A.
 Alpha  occ. eigenvalues --  -24.66160 -19.13943 -10.25213 -10.23550  -1.17765
 Alpha  occ. eigenvalues --   -1.02197  -0.75093  -0.61772  -0.53167  -0.49768
 Alpha  occ. eigenvalues --   -0.46119  -0.44899  -0.42315  -0.36337  -0.32960
 Alpha  occ. eigenvalues --   -0.31698  -0.27473
 Alpha virt. eigenvalues --    0.07074   0.11430   0.12828   0.15737   0.16426
 Alpha virt. eigenvalues --    0.18168   0.20982   0.22824   0.43794   0.46897
 Alpha virt. eigenvalues --    0.49211   0.50435   0.56293   0.60568   0.65675

 Mulliken charges:
               1
     1  C   -0.085542
     2  H    0.097670
     3  H    0.086891
     4  C   -0.035439
     5  H    0.097017
     6  H    0.108762
     7  F   -0.152431
     8  O   -0.408402
     9  H    0.291473
 Sum of Mulliken charges =  -0.00000

 Dipole moment (field-independent basis, Debye):
    X=              1.5205    Y=              2.0737    Z=             -0.5171  Tot=              2.6229
 Quadrupole moment (field-independent basis, Debye-Ang):
   XX=            -20.9205   YY=            -23.9435   ZZ=            -23.1509
   XY=             -1.4176   XZ=             -2.3376   YZ=              0.4429

  Exact polarizability:      30.910      -1.494      28.292      -0.953      -0.238      26.651
 Approx polarizability:      38.266      -0.740      39.488      -0.325      -0.419      36.459

                      1                      2                      3
                      A                      A                      A
 Frequencies --    155.9097               219.4927               314.8236
 Red. masses --      3.6260                 1.1372                 2.5320
 Frc consts  --      0.0519                 0.0323                 0.1479
 IR Inten    --     10.8062               101.9727                 6.5849

                      4                      5                      6
                      A                      A                      A
 Frequencies --    507.6717               885.5454               899.9182
 Red. masses --      2.3694                 2.1932                 2.0396
 Frc consts  --      0.3598                 1.0133                 0.9732
 IR Inten    --     16.5251                14.5846                34.6353

                      7                      8                      9
                      A                      A                      A
 Frequencies --   1090.9590              1110.2317              1142.8742
 Red. masses --      2.5090                 3.2769                 2.5521
 Frc consts  --      1.7594                 2.3798                 1.9640
 IR Inten    --     71.5108                34.6453                37.9743

                     10                     11                     12
                      A                      A                      A
 Frequencies --   1242.2101              1265.2566              1318.2035
 Red. masses --      1.1539                 1.1292                 1.1084
 Frc consts  --      1.0491                 1.0651                 1.1348
 IR Inten    --     28.0971                 7.4857                24.0558

                     13                     14                     15
                      A                      A                      A
 Frequencies --   1426.4207              1470.5311              1500.6639
 Red. masses --      1.2734                 1.5434                 1.0894
 Frc consts  --      1.5266                 1.9664                 1.4455
 IR Inten    --     12.6738                 2.3490                 6.1141

                     16                     17                     18
                      A                      A                      A
 Frequencies --   1508.6898              2962.5652              2998.1036
 Red. masses --      1.0955                 1.0582                 1.0983
 Frc consts  --      1.4692                 5.4723                 5.8163
 IR Inten    --      3.1689                49.1567                34.2177

                     19                     20                     21
                      A                      A                      A
 Frequencies --   3022.5324              3069.4782              3838.9514
 Red. masses --      1.0594                 1.1084                 1.0665
 Frc consts  --      5.7022                 6.1527                 9.2606
 IR Inten    --     56.0648                49.9119                25.0661

 - Thermochemistry -
 -------------------
 Temperature   298.150 Kelvin.  Pressure   1.00000 Atm.
 Atom     1 has atomic number  6 and mass  12.00000

 Molecular mass:    64.03244 amu.
 Principal axes and moments of inertia in atomic units:
                           1         2         3
     Eigenvalues --   111.24918 334.54805 398.11891
           X            0.99904  -0.03248  -0.02949
           Y            0.03247   0.99947  -0.00092
           Z            0.02950  -0.00004   0.99956
 This molecule is an asymmetric top.
 Rotational symmetry number  1.
 Rotational temperatures (Kelvin)      0.77856     0.25890     0.21756
 Rotational constants (GHZ):          16.22251     5.39457     4.53317
 Zero-point vibrational energy     191109.6 (Joules/Mol)
                                   45.67629 (Kcal/Mol)
 Warning -- explicit consideration of   4 degrees of freedom as
           vibrations may cause significant error
 Vibrational temperatures:    224.32   315.80   452.96   730.43  1274.10
          (Kelvin)           1294.78  1569.65  1597.38  1644.34  1787.26
                             1820.42  1896.60  2052.30  2115.77  2159.12
                             2170.67  4262.47  4313.60  4348.75  4416.29
                             5523.39

 Zero-point correction=                           0.072790 (Hartree/Particle)
 Thermal correction to Energy=                    0.077648
 Thermal correction to Enthalpy=                  0.078592
 Thermal correction to Gibbs Free Energy=         0.045454
 Sum of electronic and zero-point Energies=           -254.207939
 Sum of electronic and thermal Energies=              -254.203081
 Sum of electronic and thermal Enthalpies=            -254.202136
 Sum of electronic and thermal Free Energies=         -254.235274

                     E (Thermal)             CV                S
                      KCal/Mol        Cal/Mol-Kelvin    Cal/Mol-Kelvin
 Total                   48.725             15.184             69.744
 Electronic               0.000              0.000              0.000
 Translational            0.889              2.981             38.389
 Rotational               0.889              2.981             24.209
 Vibrational             46.947              9.223              7.147
 Vibration     1          0.620              1.896              2.599
 Vibration     2          0.647              1.811              1.963
 Vibration     3          0.702              1.645              1.337
 Vibration     4          0.863              1.233              0.639

 Normal termination of Gaussian 16 at Thu Dec  5 18:22:45 2024.
