 Gaussian 16, Revision C.01,
 Gaussian 16:  ES64L-G16RevC.01  3-Jul-2019

 -------------------------
 # freq b3lyp/6-31g(2df,p)
 -------------------------

 -------------------------------------------------------------------
 energy: -15.614184499692 gnorm: 0.000439253721 xtb: 6.6.1 (8d0f1dd)
 -------------------------------------------------------------------
 Symbolic Z-matrix:
 Charge =  0 Multiplicity = 1

                         Standard orientation:
 ---------------------------------------------------------------------
 Center     Atomic      Atomic             Coordinates (Angstroms)
 Number     Number       Type             X           Y           Z
 ---------------------------------------------------------------------
      1          6           0        0.625647    0.437892   -0.378789
      2          1           0        0.402097    0.148497   -1.415616
      3          1           0        1.000555    1.473787   -0.390189
      4          6           0       -0.677981    0.381114    0.409631
      5          1           0       -1.129779    1.377904    0.479827
      6          1           0       -0.473972    0.006670    1.418951
      7          9           0       -1.592409   -0.446789   -0.209395
      8          8           0        1.563097   -0.427232    0.240873
      9          1           0        2.342009   -0.481932   -0.320460
 ---------------------------------------------------------------------

 SCF Done:  E(RB3LYP) =  -254.278484088     A.U. after   12 cycles

 The electronic state is 1-A.
 Alpha  occ. eigenvalues --  -24.66247 -19.14084 -10.25141 -10.23504  -1.17758
 Alpha  occ. eigenvalues --   -1.02224  -0.74821  -0.62002  -0.53113  -0.49695
 Alpha  occ. eigenvalues --   -0.45582  -0.45388  -0.42268  -0.36377  -0.32964
 Alpha  occ. eigenvalues --   -0.32062  -0.27416
 Alpha virt. eigenvalues --    0.07130   0.10490   0.13092   0.14496   0.16554
 Alpha virt. eigenvalues --    0.19514   0.22136   0.22605   0.43634   0.45626
 Alpha virt. eigenvalues --    0.49597   0.50623   0.58104   0.61654   0.67684

 Mulliken charges:
               1
     1  C   -0.082742
     2  H    0.107468
     3  H    0.088426
     4  C   -0.039896
     5  H    0.097272
     6  H    0.119752
     7  F   -0.161379
     8  O   -0.418306
     9  H    0.289404
 Sum of Mulliken charges =  -0.00000

 Dipole moment (field-independent basis, Debye):
    X=              1.4959    Y=              1.4784    Z=             -0.6813  Tot=              2.2108
 Quadrupole moment (field-independent basis, Debye-Ang):
   XX=            -22.7144   YY=            -23.6057   ZZ=            -22.8310
   XY=             -1.1604   XZ=             -3.4275   YZ=              0.4925

  Exact polarizability:      31.296      -1.424      27.022      -1.087      -0.238      27.028
 Approx polarizability:      39.057      -0.988      37.141       0.157      -0.425      37.141

 ******    1 imaginary frequencies (negative Signs) ******

                      1                      2                      3
                      A                      A                      A
 Frequencies --    -69.2471               254.7585               374.1860
 Red. masses --      2.9573                 1.1017                 3.3212
 Frc consts  --      0.0084                 0.0421                 0.2740
 IR Inten    --      2.3542               115.8030                 2.9129

                      4                      5                      6
                      A                      A                      A
 Frequencies --    456.5902               866.4452               970.5927
 Red. masses --      2.4848                 2.2568                 2.3025
 Frc consts  --      0.3052                 0.9982                 1.2780
 IR Inten    --     15.7454                15.3420                69.3888

                      7                      8                      9
                      A                      A                      A
 Frequencies --   1045.8560              1111.1641              1119.9493
 Red. masses --      2.1789                 3.0604                 2.9436
 Frc consts  --      1.4042                 2.2263                 2.1753
 IR Inten    --     24.5419                34.0477                35.3924

                     10                     11                     12
                      A                      A                      A
 Frequencies --   1236.5070              1275.1692              1303.4546
 Red. masses --      1.1509                 1.1260                 1.1084
 Frc consts  --      1.0368                 1.0787                 1.1095
 IR Inten    --     14.3762                52.5615                 6.7263

                     13                     14                     15
                      A                      A                      A
 Frequencies --   1410.5675              1464.5469              1502.2744
 Red. masses --      1.2572                 1.4624                 1.0937
 Frc consts  --      1.4739                 1.8481                 1.4543
 IR Inten    --      8.5565                 3.9551                 1.7113

                     16                     17                     18
                      A                      A                      A
 Frequencies --   1508.6433              2971.6652              3020.2791
 Red. masses --      1.0881                 1.0627                 1.0878
 Frc consts  --      1.4591                 5.5291                 5.8464
 IR Inten    --      7.8386                48.0340                17.2065

                     19                     20                     21
                      A                      A                      A
 Frequencies --   3034.2325              3085.3094              3830.9990
 Red. masses --      1.0681                 1.1070                 1.0663
 Frc consts  --      5.7937                 6.2087                 9.2203
 IR Inten    --     63.1775                34.1784                21.7242

 - Thermochemistry -
 -------------------
 Temperature   298.150 Kelvin.  Pressure   1.00000 Atm.
 Atom     1 has atomic number  6 and mass  12.00000

 Molecular mass:    64.03244 amu.
 Principal axes and moments of inertia in atomic units:
                           1         2         3
     Eigenvalues --    88.82040 412.56672 430.50353
           X            0.99925  -0.01860  -0.03383
           Y            0.01863   0.99983   0.00039
           Z            0.03382  -0.00102   0.99943
 This molecule is an asymmetric top.
 Rotational symmetry number  1.
 Rotational temperatures (Kelvin)      0.97516     0.20994     0.20119
 Rotational constants (GHZ):          20.31899     4.37442     4.19216
    1 imaginary frequencies ignored.
 Zero-point vibrational energy     190464.6 (Joules/Mol)
                                   45.52213 (Kcal/Mol)
 Warning -- explicit consideration of   3 degrees of freedom as
           vibrations may cause significant error
 Vibrational temperatures:    366.54   538.37   656.93  1246.62  1396.47
          (Kelvin)           1504.75  1598.72  1611.36  1779.06  1834.68
                             1875.38  2029.49  2107.16  2161.44  2170.60
                             4275.56  4345.51  4365.58  4439.07  5511.95

 Zero-point correction=                           0.072544 (Hartree/Particle)
 Thermal correction to Energy=                    0.076691
 Thermal correction to Enthalpy=                  0.077635
 Thermal correction to Gibbs Free Energy=         0.045895
 Sum of electronic and zero-point Energies=           -254.205940
 Sum of electronic and thermal Energies=              -254.201793
 Sum of electronic and thermal Enthalpies=            -254.200849
 Sum of electronic and thermal Free Energies=         -254.232589

                     E (Thermal)             CV                S
                      KCal/Mol        Cal/Mol-Kelvin    Cal/Mol-Kelvin
 Total                   48.124             13.233             66.802
 Electronic               0.000              0.000              0.000
 Translational            0.889              2.981             38.389
 Rotational               0.889              2.981             24.271
 Vibrational             46.347              7.271              4.142
 Vibration     1          0.665              1.755              1.697
 Vibration     2          0.745              1.525              1.063
 Vibration     3          0.815              1.346              0.776

 Normal termination of Gaussian 16 at Thu Dec  5 18:24:30 2024.
