 Gaussian 16, Revision C.01,
 Gaussian 16:  ES64L-G16RevC.01  3-Jul-2019

 -------------------------
 # freq b3lyp/6-31g(2df,p)
 -------------------------

 -------------------------------------------------------------------
 energy: -15.614184499692 gnorm: 0.000439253721 xtb: 6.6.1 (8d0f1dd)
 -------------------------------------------------------------------
 Symbolic Z-matrix:
 Charge =  0 Multiplicity = 1

                         Standard orientation:
 ---------------------------------------------------------------------
 Center     Atomic      Atomic             Coordinates (Angstroms)
 Number     Number       Type             X           Y           Z
 ---------------------------------------------------------------------
      1          6           0       -0.701931    0.621764   -0.180073
      2          1           0       -1.156015    1.467979    0.360502
      3          1           0       -0.802288    0.827375   -1.258400
      4          6           0        0.777566    0.565007    0.188985
      5          1           0        0.900990    0.702113    1.271268
      6          1           0        1.326588    1.360491   -0.330522
      7          9           0        1.310812   -0.658620   -0.132886
      8          8           0       -1.286594   -0.622932    0.143120
      9          1           0       -2.227636   -0.567545   -0.045303
 ---------------------------------------------------------------------

 SCF Done:  E(RB3LYP) =  -254.277235427     A.U. after   12 cycles

 The electronic state is 1-A.
 Alpha  occ. eigenvalues --  -24.66155 -19.13891 -10.25276 -10.23569  -1.17804
 Alpha  occ. eigenvalues --   -1.02128  -0.74867  -0.61747  -0.52990  -0.49703
 Alpha  occ. eigenvalues --   -0.46488  -0.44692  -0.42293  -0.35991  -0.32785
 Alpha  occ. eigenvalues --   -0.31853  -0.27184
 Alpha virt. eigenvalues --    0.06671   0.11122   0.12814   0.14380   0.16415
 Alpha virt. eigenvalues --    0.19437   0.22196   0.23627   0.43026   0.47504
 Alpha virt. eigenvalues --    0.48989   0.50433   0.54933   0.60189   0.65518

 Mulliken charges:
               1
     1  C   -0.092045
     2  H    0.090062
     3  H    0.093007
     4  C   -0.040502
     5  H    0.103692
     6  H    0.099769
     7  F   -0.143382
     8  O   -0.401926
     9  H    0.291325
 Sum of Mulliken charges =  -0.00000

 Dipole moment (field-independent basis, Debye):
    X=             -1.5842    Y=              2.3318    Z=             -0.1867  Tot=              2.8252
 Quadrupole moment (field-independent basis, Debye-Ang):
   XX=            -20.0322   YY=            -24.1742   ZZ=            -23.3213
   XY=              1.2735   XZ=              1.1410   YZ=              0.2207

  Exact polarizability:      31.017       1.338      28.436       0.558      -0.313      26.246
 Approx polarizability:      38.189       0.391      40.002       0.021      -0.415      35.656

                      1                      2                      3
                      A                      A                      A
 Frequencies --    113.3343               232.4017               289.9309
 Red. masses --      2.4977                 1.1015                 4.3747
 Frc consts  --      0.0189                 0.0351                 0.2167
 IR Inten    --      6.1924               110.4650                 2.3199

                      4                      5                      6
                      A                      A                      A
 Frequencies --    543.0398               872.7598               902.9785
 Red. masses --      2.7964                 1.5742                 2.6195
 Frc consts  --      0.4859                 0.7065                 1.2584
 IR Inten    --     18.9840                19.4108                14.6951

                      7                      8                      9
                      A                      A                      A
 Frequencies --   1097.8173              1113.3220              1164.1620
 Red. masses --      3.3832                 3.4825                 2.1341
 Frc consts  --      2.4024                 2.5432                 1.7041
 IR Inten    --     42.8208                92.3127                24.9888

                     10                     11                     12
                      A                      A                      A
 Frequencies --   1221.4380              1276.6563              1315.8297
 Red. masses --      1.1261                 1.1385                 1.1195
 Frc consts  --      0.9899                 1.0933                 1.1420
 IR Inten    --     26.4956                 3.4924                18.9253

                     13                     14                     15
                      A                      A                      A
 Frequencies --   1431.8502              1472.0692              1506.6310
 Red. masses --      1.2687                 1.4869                 1.0868
 Frc consts  --      1.5325                 1.8984                 1.4534
 IR Inten    --     14.4642                 0.7371                 3.6673

                     16                     17                     18
                      A                      A                      A
 Frequencies --   1517.5978              2963.0847              2990.2478
 Red. masses --      1.0840                 1.0561                 1.1015
 Frc consts  --      1.4710                 5.4631                 5.8031
 IR Inten    --      2.3340                52.0467                35.2001

                     19                     20                     21
                      A                      A                      A
 Frequencies --   3019.9113              3064.9082              3836.5192
 Red. masses --      1.0588                 1.1086                 1.0665
 Frc consts  --      5.6895                 6.1357                 9.2488
 IR Inten    --     60.5595                56.7135                25.0873

 - Thermochemistry -
 -------------------
 Temperature   298.150 Kelvin.  Pressure   1.00000 Atm.
 Atom     1 has atomic number  6 and mass  12.00000

 Molecular mass:    64.03244 amu.
 Principal axes and moments of inertia in atomic units:
                           1         2         3
     Eigenvalues --   117.86733 309.72405 392.47634
           X            0.99912   0.03683   0.02017
           Y           -0.03676   0.99932  -0.00353
           Z           -0.02028   0.00278   0.99979
 This molecule is an asymmetric top.
 Rotational symmetry number  1.
 Rotational temperatures (Kelvin)      0.73484     0.27965     0.22069
 Rotational constants (GHZ):          15.31163     5.82693     4.59834
 Zero-point vibrational energy     191082.4 (Joules/Mol)
                                   45.66980 (Kcal/Mol)
 Warning -- explicit consideration of   4 degrees of freedom as
           vibrations may cause significant error
 Vibrational temperatures:    163.06   334.37   417.15   781.31  1255.71
          (Kelvin)           1299.18  1579.51  1601.82  1674.97  1757.38
                             1836.82  1893.19  2060.11  2117.98  2167.71
                             2183.48  4263.22  4302.30  4344.98  4409.72
                             5519.90

 Zero-point correction=                           0.072779 (Hartree/Particle)
 Thermal correction to Energy=                    0.077701
 Thermal correction to Enthalpy=                  0.078645
 Thermal correction to Gibbs Free Energy=         0.045254
 Sum of electronic and zero-point Energies=           -254.204456
 Sum of electronic and thermal Energies=              -254.199534
 Sum of electronic and thermal Enthalpies=            -254.198590
 Sum of electronic and thermal Free Energies=         -254.231981

                     E (Thermal)             CV                S
                      KCal/Mol        Cal/Mol-Kelvin    Cal/Mol-Kelvin
 Total                   48.758             15.167             70.277
 Electronic               0.000              0.000              0.000
 Translational            0.889              2.981             38.389
 Rotational               0.889              2.981             24.175
 Vibrational             46.981              9.205              7.713
 Vibration     1          0.607              1.938              3.211
 Vibration     2          0.653              1.791              1.860
 Vibration     3          0.686              1.692              1.474
 Vibration     4          0.898              1.155              0.559

 Normal termination of Gaussian 16 at Thu Dec  5 18:22:45 2024.
