 Gaussian 16, Revision C.01,
 Gaussian 16:  ES64L-G16RevC.01  3-Jul-2019

 -------------------------
 # freq b3lyp/6-31g(2df,p)
 -------------------------

 -------------------------------------------------------------------
 energy: -15.614184499692 gnorm: 0.000439253721 xtb: 6.6.1 (8d0f1dd)
 -------------------------------------------------------------------
 Symbolic Z-matrix:
 Charge =  0 Multiplicity = 1

                         Standard orientation:
 ---------------------------------------------------------------------
 Center     Atomic      Atomic             Coordinates (Angstroms)
 Number     Number       Type             X           Y           Z
 ---------------------------------------------------------------------
      1          6           0        0.560369    0.496936    0.102094
      2          1           0        0.372709    1.216840   -0.709584
      3          1           0        0.601856    1.059117    1.046303
      4          6           0       -0.600774   -0.489971    0.116957
      5          1           0       -0.675975   -1.018272    1.074064
      6          1           0       -0.444865   -1.226760   -0.680280
      7          9           0       -1.779381    0.185722   -0.116885
      8          8           0        1.738380   -0.258330   -0.122548
      9          1           0        2.496095    0.322433   -0.012457
 ---------------------------------------------------------------------

 SCF Done:  E(RB3LYP) =  -254.279932837     A.U. after   11 cycles

 The electronic state is 1-A.
 Alpha  occ. eigenvalues --  -24.66717 -19.14463 -10.25124 -10.23458  -1.18197
 Alpha  occ. eigenvalues --   -1.02585  -0.74643  -0.62112  -0.52960  -0.49978
 Alpha  occ. eigenvalues --   -0.46261  -0.45425  -0.42282  -0.36508  -0.32994
 Alpha  occ. eigenvalues --   -0.32189  -0.27702
 Alpha virt. eigenvalues --    0.06243   0.10663   0.14474   0.14767   0.15694
 Alpha virt. eigenvalues --    0.19979   0.21830   0.25043   0.42841   0.46898
 Alpha virt. eigenvalues --    0.49217   0.51589   0.53665   0.63221   0.65696

 Mulliken charges:
               1
     1  C   -0.098462
     2  H    0.101683
     3  H    0.097217
     4  C   -0.043727
     5  H    0.107443
     6  H    0.115047
     7  F   -0.155882
     8  O   -0.417131
     9  H    0.293814
 Sum of Mulliken charges =  -0.00000

 Dipole moment (field-independent basis, Debye):
    X=              1.5840    Y=              0.7473    Z=              0.5980  Tot=              1.8507
 Quadrupole moment (field-independent basis, Debye-Ang):
   XX=            -23.8311   YY=            -22.9765   ZZ=            -23.1480
   XY=              3.8817   XZ=              0.2431   YZ=             -0.0439

  Exact polarizability:      31.352       0.665      27.764      -0.053       0.168      25.809
 Approx polarizability:      39.758      -1.286      37.731       0.239       0.410      35.109

                      1                      2                      3
                      A                      A                      A
 Frequencies --     99.0444               225.5448               302.0025
 Red. masses --      3.2520                 1.1035                 3.4308
 Frc consts  --      0.0188                 0.0331                 0.1844
 IR Inten    --      8.9479               107.0618                17.3978

                      4                      5                      6
                      A                      A                      A
 Frequencies --    467.8499               821.6118              1016.6149
 Red. masses --      7.3301                 1.1272                 2.6364
 Frc consts  --      0.9453                 0.4483                 1.6054
 IR Inten    --      1.3355                 1.2946                37.7788

                      7                      8                      9
                      A                      A                      A
 Frequencies --   1088.6889              1099.1265              1165.5181
 Red. masses --      7.5819                 4.5127                 1.5655
 Frc consts  --      5.2947                 3.2120                 1.2530
 IR Inten    --    123.4620                42.1128                 0.4890

                     10                     11                     12
                      A                      A                      A
 Frequencies --   1237.3583              1253.4900              1295.3470
 Red. masses --      1.1562                 1.1643                 1.0933
 Frc consts  --      1.0430                 1.0779                 1.0808
 IR Inten    --      2.8981                36.0892                 4.7153

                     13                     14                     15
                      A                      A                      A
 Frequencies --   1397.8399              1473.9031              1516.3476
 Red. masses --      1.2766                 1.5153                 1.0819
 Frc consts  --      1.4697                 1.9395                 1.4657
 IR Inten    --      8.0468                 4.1611                 0.1512

                     16                     17                     18
                      A                      A                      A
 Frequencies --   1531.6582              2982.0609              3017.0639
 Red. masses --      1.0866                 1.0557                 1.1053
 Frc consts  --      1.5018                 5.5313                 5.9279
 IR Inten    --      4.2607                47.4522                36.9764

                     19                     20                     21
                      A                      A                      A
 Frequencies --   3033.2274              3085.1526              3840.9345
 Red. masses --      1.0557                 1.1103                 1.0666
 Frc consts  --      5.7229                 6.2262                 9.2708
 IR Inten    --     38.3666                54.2630                27.8555

 - Thermochemistry -
 -------------------
 Temperature   298.150 Kelvin.  Pressure   1.00000 Atm.
 Atom     1 has atomic number  6 and mass  12.00000

 Molecular mass:    64.03244 amu.
 Principal axes and moments of inertia in atomic units:
                           1         2         3
     Eigenvalues --    59.87500 456.71320 487.89296
           X            0.99952   0.03100  -0.00204
           Y           -0.03100   0.99952  -0.00016
           Z            0.00204   0.00022   1.00000
 This molecule is an asymmetric top.
 Rotational symmetry number  1.
 Rotational temperatures (Kelvin)      1.44658     0.18965     0.17753
 Rotational constants (GHZ):          30.14181     3.95159     3.69905
 Zero-point vibrational energy     191105.7 (Joules/Mol)
                                   45.67537 (Kcal/Mol)
 Warning -- explicit consideration of   4 degrees of freedom as
           vibrations may cause significant error
 Vibrational temperatures:    142.50   324.51   434.51   673.13  1182.12
          (Kelvin)           1462.68  1566.38  1581.40  1676.92  1780.28
                             1803.49  1863.72  2011.18  2120.62  2181.69
                             2203.71  4290.52  4340.88  4364.14  4438.85
                             5526.25

 Zero-point correction=                           0.072788 (Hartree/Particle)
 Thermal correction to Energy=                    0.077784
 Thermal correction to Enthalpy=                  0.078728
 Thermal correction to Gibbs Free Energy=         0.045169
 Sum of electronic and zero-point Energies=           -254.207145
 Sum of electronic and thermal Energies=              -254.202149
 Sum of electronic and thermal Enthalpies=            -254.201204
 Sum of electronic and thermal Free Energies=         -254.234764

                     E (Thermal)             CV                S
                      KCal/Mol        Cal/Mol-Kelvin    Cal/Mol-Kelvin
 Total                   48.810             15.311             70.633
 Electronic               0.000              0.000              0.000
 Translational            0.889              2.981             38.389
 Rotational               0.889              2.981             24.104
 Vibrational             47.033              9.349              8.139
 Vibration     1          0.604              1.950              3.473
 Vibration     2          0.650              1.802              1.914
 Vibration     3          0.694              1.670              1.406
 Vibration     4          0.825              1.321              0.744

 Normal termination of Gaussian 16 at Thu Dec  5 18:23:59 2024.
