 Gaussian 16, Revision C.01,
 Gaussian 16:  ES64L-G16RevC.01  3-Jul-2019

 -------------------------
 # freq b3lyp/6-31g(2df,p)
 -------------------------

 -------------------------------------------------------------------
 energy: -15.614184499692 gnorm: 0.000439253721 xtb: 6.6.1 (8d0f1dd)
 -------------------------------------------------------------------
 Symbolic Z-matrix:
 Charge =  0 Multiplicity = 1

                         Standard orientation:
 ---------------------------------------------------------------------
 Center     Atomic      Atomic             Coordinates (Angstroms)
 Number     Number       Type             X           Y           Z
 ---------------------------------------------------------------------
      1          6           0        0.579407    0.484211    0.206051
      2          1           0        0.331798    1.292864   -0.498444
      3          1           0        0.750380    0.936715    1.193168
      4          6           0       -0.621235   -0.464777    0.229891
      5          1           0       -0.834480   -0.847001    1.234226
      6          1           0       -0.396955   -1.309811   -0.431628
      7          9           0       -1.745248    0.182946   -0.238088
      8          8           0        1.702855   -0.265535   -0.227795
      9          1           0        2.484615    0.288403   -0.147815
 ---------------------------------------------------------------------

 SCF Done:  E(RB3LYP) =  -254.277791601     A.U. after   11 cycles

 The electronic state is 1-A.
 Alpha  occ. eigenvalues --  -24.66537 -19.14344 -10.25111 -10.23458  -1.18035
 Alpha  occ. eigenvalues --   -1.02441  -0.74532  -0.62127  -0.52998  -0.49842
 Alpha  occ. eigenvalues --   -0.45892  -0.45360  -0.42329  -0.36452  -0.32951
 Alpha  occ. eigenvalues --   -0.32105  -0.27547
 Alpha virt. eigenvalues --    0.06485   0.10289   0.13980   0.14756   0.15855
 Alpha virt. eigenvalues --    0.19853   0.22234   0.25100   0.42524   0.47203
 Alpha virt. eigenvalues --    0.48471   0.51030   0.54684   0.63780   0.67010

 Mulliken charges:
               1
     1  C   -0.093380
     2  H    0.105389
     3  H    0.094909
     4  C   -0.045395
     5  H    0.104272
     6  H    0.119373
     7  F   -0.158419
     8  O   -0.418145
     9  H    0.291398
 Sum of Mulliken charges =  -0.00000

 Dipole moment (field-independent basis, Debye):
    X=              1.5934    Y=              0.7309    Z=              0.9619  Tot=              1.9996
 Quadrupole moment (field-independent basis, Debye-Ang):
   XX=            -23.4545   YY=            -23.0122   ZZ=            -23.2728
   XY=              3.6813   XZ=             -0.1822   YZ=             -0.1962

  Exact polarizability:      31.587       0.823      27.460      -0.477       0.231      25.877
 Approx polarizability:      39.876      -0.934      37.423      -0.017       0.509      35.292

 ******    1 imaginary frequencies (negative Signs) ******

                      1                      2                      3
                      A                      A                      A
 Frequencies --    -91.5291               251.9802               351.1920
 Red. masses --      2.9251                 1.1162                 3.0401
 Frc consts  --      0.0144                 0.0418                 0.2209
 IR Inten    --      3.7696               111.8051                18.2353

                      4                      5                      6
                      A                      A                      A
 Frequencies --    454.8616               832.8866              1005.6602
 Red. masses --      5.8491                 1.2859                 2.7522
 Frc consts  --      0.7130                 0.5256                 1.6400
 IR Inten    --      1.6122                 4.0267                32.0062

                      7                      8                      9
                      A                      A                      A
 Frequencies --   1069.9008              1105.6108              1149.4125
 Red. masses --      5.7615                 4.1817                 1.7397
 Frc consts  --      3.8858                 3.0117                 1.3542
 IR Inten    --    136.7589                13.6133                 4.0038

                     10                     11                     12
                      A                      A                      A
 Frequencies --   1249.8526              1256.1508              1285.5299
 Red. masses --      1.1205                 1.1700                 1.0745
 Frc consts  --      1.0313                 1.0878                 1.0462
 IR Inten    --      3.7492                39.0237                13.1283

                     13                     14                     15
                      A                      A                      A
 Frequencies --   1399.7117              1469.1499              1509.1511
 Red. masses --      1.2650                 1.4621                 1.0830
 Frc consts  --      1.4602                 1.8593                 1.4533
 IR Inten    --      7.9363                 4.0276                 0.3725

                     16                     17                     18
                      A                      A                      A
 Frequencies --   1525.2912              2984.3417              3019.0877
 Red. masses --      1.0848                 1.0554                 1.1030
 Frc consts  --      1.4869                 5.5382                 5.9233
 IR Inten    --      5.7952                45.2068                32.9531

                     19                     20                     21
                      A                      A                      A
 Frequencies --   3035.3593              3086.4661              3834.3669
 Red. masses --      1.0590                 1.1099                 1.0664
 Frc consts  --      5.7485                 6.2297                 9.2375
 IR Inten    --     39.4541                47.6490                24.4602

 - Thermochemistry -
 -------------------
 Temperature   298.150 Kelvin.  Pressure   1.00000 Atm.
 Atom     1 has atomic number  6 and mass  12.00000

 Molecular mass:    64.03244 amu.
 Principal axes and moments of inertia in atomic units:
                           1         2         3
     Eigenvalues --    66.43793 453.37193 473.84174
           X            0.99949   0.03116  -0.00722
           Y           -0.03120   0.99950  -0.00435
           Z            0.00709   0.00457   0.99996
 This molecule is an asymmetric top.
 Rotational symmetry number  1.
 Rotational temperatures (Kelvin)      1.30368     0.19104     0.18279
 Rotational constants (GHZ):          27.16432     3.98071     3.80874
    1 imaginary frequencies ignored.
 Zero-point vibrational energy     190660.6 (Joules/Mol)
                                   45.56898 (Kcal/Mol)
 Warning -- explicit consideration of   3 degrees of freedom as
           vibrations may cause significant error
 Vibrational temperatures:    362.54   505.29   654.44  1198.34  1446.92
          (Kelvin)           1539.35  1590.73  1653.75  1798.26  1807.32
                             1849.59  2013.87  2113.78  2171.33  2194.55
                             4293.80  4343.79  4367.21  4440.74  5516.80

 Zero-point correction=                           0.072619 (Hartree/Particle)
 Thermal correction to Energy=                    0.076794
 Thermal correction to Enthalpy=                  0.077738
 Thermal correction to Gibbs Free Energy=         0.045988
 Sum of electronic and zero-point Energies=           -254.205173
 Sum of electronic and thermal Energies=              -254.200997
 Sum of electronic and thermal Enthalpies=            -254.200053
 Sum of electronic and thermal Free Energies=         -254.231803

                     E (Thermal)             CV                S
                      KCal/Mol        Cal/Mol-Kelvin    Cal/Mol-Kelvin
 Total                   48.189             13.267             66.824
 Electronic               0.000              0.000              0.000
 Translational            0.889              2.981             38.389
 Rotational               0.889              2.981             24.171
 Vibrational             46.412              7.306              4.263
 Vibration     1          0.664              1.759              1.717
 Vibration     2          0.728              1.573              1.161
 Vibration     3          0.813              1.350              0.781

 Normal termination of Gaussian 16 at Thu Dec  5 18:23:54 2024.
