 Gaussian 16, Revision C.01,
 Gaussian 16:  ES64L-G16RevC.01  3-Jul-2019

 -------------------------
 # freq b3lyp/6-31g(2df,p)
 -------------------------

 -------------------------------------------------------------------
 energy: -15.614184499692 gnorm: 0.000439253721 xtb: 6.6.1 (8d0f1dd)
 -------------------------------------------------------------------
 Symbolic Z-matrix:
 Charge =  0 Multiplicity = 1

                         Standard orientation:
 ---------------------------------------------------------------------
 Center     Atomic      Atomic             Coordinates (Angstroms)
 Number     Number       Type             X           Y           Z
 ---------------------------------------------------------------------
      1          6           0       -0.591582    0.475643    0.252758
      2          1           0       -0.823352    0.865078    1.254690
      3          1           0       -0.332066    1.329578   -0.390555
      4          6           0        0.634656   -0.443323    0.287846
      5          1           0        0.395852   -1.352083   -0.276179
      6          1           0        0.916456   -0.721051    1.309452
      7          9           0        1.717454    0.177338   -0.301125
      8          8           0       -1.676113   -0.273660   -0.273108
      9          1           0       -2.463515    0.277801   -0.246042
 ---------------------------------------------------------------------

 SCF Done:  E(RB3LYP) =  -254.276989958     A.U. after   11 cycles

 The electronic state is 1-A.
 Alpha  occ. eigenvalues --  -24.66436 -19.14269 -10.25114 -10.23465  -1.17922
 Alpha  occ. eigenvalues --   -1.02359  -0.74519  -0.62119  -0.53000  -0.49763
 Alpha  occ. eigenvalues --   -0.45744  -0.45332  -0.42330  -0.36427  -0.32906
 Alpha  occ. eigenvalues --   -0.32091  -0.27480
 Alpha virt. eigenvalues --    0.06641   0.10119   0.13712   0.14675   0.15981
 Alpha virt. eigenvalues --    0.19825   0.22469   0.24698   0.42460   0.46982
 Alpha virt. eigenvalues --    0.48650   0.50800   0.55557   0.63689   0.67782

 Mulliken charges:
               1
     1  C   -0.090567
     2  H    0.093457
     3  H    0.107221
     4  C   -0.045269
     5  H    0.121260
     6  H    0.102673
     7  F   -0.160229
     8  O   -0.418771
     9  H    0.290226
 Sum of Mulliken charges =  -0.00000

 Dipole moment (field-independent basis, Debye):
    X=             -1.5812    Y=              0.7556    Z=              1.0807  Tot=              2.0589
 Quadrupole moment (field-independent basis, Debye-Ang):
   XX=            -23.2754   YY=            -23.0037   ZZ=            -23.3357
   XY=             -3.5904   XZ=              0.5748   YZ=             -0.2963

  Exact polarizability:      31.605      -0.887      27.325       0.780       0.232      26.012
 Approx polarizability:      39.767       0.736      37.331       0.259       0.483      35.512

 ******    1 imaginary frequencies (negative Signs) ******

                      1                      2                      3
                      A                      A                      A
 Frequencies --   -129.6842               263.8025               381.7018
 Red. masses --      2.8307                 1.1123                 2.8677
 Frc consts  --      0.0280                 0.0456                 0.2462
 IR Inten    --      3.2392               114.0617                17.3617

                      4                      5                      6
                      A                      A                      A
 Frequencies --    440.9280               843.9284              1003.6077
 Red. masses --      5.0647                 1.4491                 2.6692
 Frc consts  --      0.5802                 0.6081                 1.5840
 IR Inten    --      1.8461                 6.9900                34.4921

                      7                      8                      9
                      A                      A                      A
 Frequencies --   1051.3704              1108.0196              1141.2068
 Red. masses --      4.2841                 3.9801                 1.9482
 Frc consts  --      2.7901                 2.8790                 1.4949
 IR Inten    --    111.9699                15.7037                13.0927

                     10                     11                     12
                      A                      A                      A
 Frequencies --   1249.4162              1261.5177              1279.9357
 Red. masses --      1.1218                 1.1478                 1.0775
 Frc consts  --      1.0318                 1.0762                 1.0400
 IR Inten    --     20.2776                26.9142                16.6744

                     13                     14                     15
                      A                      A                      A
 Frequencies --   1401.0789              1467.0267              1505.7970
 Red. masses --      1.2599                 1.4434                 1.0843
 Frc consts  --      1.4571                 1.8303                 1.4485
 IR Inten    --      7.6719                 3.8658                 0.4635

                     16                     17                     18
                      A                      A                      A
 Frequencies --   1521.0179              2984.7327              3018.5625
 Red. masses --      1.0837                 1.0553                 1.1017
 Frc consts  --      1.4771                 5.5393                 5.9145
 IR Inten    --      6.6564                45.9644                27.3499

                     19                     20                     21
                      A                      A                      A
 Frequencies --   3037.6211              3088.0107              3830.9693
 Red. masses --      1.0607                 1.1096                 1.0663
 Frc consts  --      5.7665                 6.2341                 9.2203
 IR Inten    --     45.1432                42.1216                22.8022

 - Thermochemistry -
 -------------------
 Temperature   298.150 Kelvin.  Pressure   1.00000 Atm.
 Atom     1 has atomic number  6 and mass  12.00000

 Molecular mass:    64.03244 amu.
 Principal axes and moments of inertia in atomic units:
                           1         2         3
     Eigenvalues --    71.26031 449.95007 462.56791
           X            0.99945  -0.03122   0.01123
           Y            0.03137   0.99942  -0.01361
           Z           -0.01080   0.01395   0.99984
 This molecule is an asymmetric top.
 Rotational symmetry number  1.
 Rotational temperatures (Kelvin)      1.21546     0.19250     0.18725
 Rotational constants (GHZ):          25.32604     4.01098     3.90157
    1 imaginary frequencies ignored.
 Zero-point vibrational energy     190686.3 (Joules/Mol)
                                   45.57511 (Kcal/Mol)
 Warning -- explicit consideration of   3 degrees of freedom as
           vibrations may cause significant error
 Vibrational temperatures:    379.55   549.18   634.40  1214.22  1443.97
          (Kelvin)           1512.69  1594.19  1641.94  1797.63  1815.04
                             1841.54  2015.84  2110.72  2166.51  2188.41
                             4294.36  4343.04  4370.46  4442.96  5511.91

 Zero-point correction=                           0.072629 (Hartree/Particle)
 Thermal correction to Energy=                    0.076768
 Thermal correction to Enthalpy=                  0.077712
 Thermal correction to Gibbs Free Energy=         0.046022
 Sum of electronic and zero-point Energies=           -254.204361
 Sum of electronic and thermal Energies=              -254.200222
 Sum of electronic and thermal Enthalpies=            -254.199278
 Sum of electronic and thermal Free Energies=         -254.230968

                     E (Thermal)             CV                S
                      KCal/Mol        Cal/Mol-Kelvin    Cal/Mol-Kelvin
 Total                   48.172             13.223             66.696
 Electronic               0.000              0.000              0.000
 Translational            0.889              2.981             38.389
 Rotational               0.889              2.981             24.210
 Vibrational             46.395              7.262              4.097
 Vibration     1          0.670              1.739              1.636
 Vibration     2          0.751              1.509              1.032
 Vibration     3          0.801              1.381              0.824

 Normal termination of Gaussian 16 at Thu Dec  5 18:24:00 2024.
