 Gaussian 16, Revision C.01,
 Gaussian 16:  ES64L-G16RevC.01  3-Jul-2019

 -------------------------
 # freq b3lyp/6-31g(2df,p)
 -------------------------

 -------------------------------------------------------------------
 energy: -15.614184499692 gnorm: 0.000439253721 xtb: 6.6.1 (8d0f1dd)
 -------------------------------------------------------------------
 Symbolic Z-matrix:
 Charge =  0 Multiplicity = 1

                         Standard orientation:
 ---------------------------------------------------------------------
 Center     Atomic      Atomic             Coordinates (Angstroms)
 Number     Number       Type             X           Y           Z
 ---------------------------------------------------------------------
      1          6           0       -0.614765    0.439304   -0.355175
      2          1           0       -0.949533    1.487943   -0.337870
      3          1           0       -0.368494    0.181047   -1.395133
      4          6           0        0.663660    0.285014    0.469821
      5          1           0        0.435862   -0.292910    1.372256
      6          1           0        1.067143    1.261622    0.761516
      7          9           0        1.640165   -0.368174   -0.255229
      8          8           0       -1.606303   -0.413103    0.196078
      9          1           0       -2.389412   -0.365215   -0.360202
 ---------------------------------------------------------------------

 SCF Done:  E(RB3LYP) =  -254.277387527     A.U. after   11 cycles

 The electronic state is 1-A.
 Alpha  occ. eigenvalues --  -24.66293 -19.14128 -10.25134 -10.23488  -1.17787
 Alpha  occ. eigenvalues --   -1.02239  -0.74680  -0.62058  -0.53056  -0.49685
 Alpha  occ. eigenvalues --   -0.45589  -0.45380  -0.42290  -0.36376  -0.32920
 Alpha  occ. eigenvalues --   -0.32077  -0.27405
 Alpha virt. eigenvalues --    0.06990   0.10186   0.13347   0.14394   0.16325
 Alpha virt. eigenvalues --    0.19777   0.22686   0.23025   0.43018   0.46062
 Alpha virt. eigenvalues --    0.49381   0.50645   0.57497   0.62515   0.68284

 Mulliken charges:
               1
     1  C   -0.084919
     2  H    0.090057
     3  H    0.108386
     4  C   -0.042420
     5  H    0.121445
     6  H    0.099021
     7  F   -0.161722
     8  O   -0.419114
     9  H    0.289267
 Sum of Mulliken charges =  -0.00000

 Dipole moment (field-independent basis, Debye):
    X=             -1.5257    Y=              1.4365    Z=             -0.5032  Tot=              2.1551
 Quadrupole moment (field-independent basis, Debye-Ang):
   XX=            -22.9253   YY=            -23.6355   ZZ=            -22.7658
   XY=              0.4832   XZ=              3.5973   YZ=              0.3342

  Exact polarizability:      31.444       1.100      26.705       1.209      -0.331      27.007
 Approx polarizability:      39.327       0.857      36.635      -0.220      -0.565      37.021

 ******    1 imaginary frequencies (negative Signs) ******

                      1                      2                      3
                      A                      A                      A
 Frequencies --   -121.8087               261.4812               397.5195
 Red. masses --      2.8295                 1.1031                 3.7178
 Frc consts  --      0.0247                 0.0444                 0.3461
 IR Inten    --      2.7397               116.3465                 2.7728

                      4                      5                      6
                      A                      A                      A
 Frequencies --    437.1647               861.0824               994.7112
 Red. masses --      2.6319                 1.9907                 2.5308
 Frc consts  --      0.2964                 0.8697                 1.4754
 IR Inten    --     15.6737                13.3564                87.9329

                      7                      8                      9
                      A                      A                      A
 Frequencies --   1030.6961              1109.6338              1126.3166
 Red. masses --      2.3947                 3.2638                 2.6099
 Frc consts  --      1.4988                 2.3677                 1.9507
 IR Inten    --     15.7724                26.3052                33.0954

                     10                     11                     12
                      A                      A                      A
 Frequencies --   1238.6224              1271.5423              1292.5648
 Red. masses --      1.1384                 1.1214                 1.1091
 Frc consts  --      1.0290                 1.0682                 1.0918
 IR Inten    --     16.3926                52.1195                 4.7853

                     13                     14                     15
                      A                      A                      A
 Frequencies --   1406.5818              1464.8607              1502.8305
 Red. masses --      1.2556                 1.4428                 1.0904
 Frc consts  --      1.4637                 1.8241                 1.4509
 IR Inten    --      7.9006                 3.7762                 0.8533

                     16                     17                     18
                      A                      A                      A
 Frequencies --   1512.4807              2977.4408              3020.1046
 Red. masses --      1.0844                 1.0608                 1.0921
 Frc consts  --      1.4616                 5.5408                 5.8686
 IR Inten    --      7.9414                47.5721                18.2885

                     19                     20                     21
                      A                      A                      A
 Frequencies --   3036.6325              3087.0455              3829.4957
 Red. masses --      1.0657                 1.1078                 1.0663
 Frc consts  --      5.7898                 6.2201                 9.2128
 IR Inten    --     59.2233                34.4762                21.4971

 - Thermochemistry -
 -------------------
 Temperature   298.150 Kelvin.  Pressure   1.00000 Atm.
 Atom     1 has atomic number  6 and mass  12.00000

 Molecular mass:    64.03244 amu.
 Principal axes and moments of inertia in atomic units:
                           1         2         3
     Eigenvalues --    82.66257 431.44656 438.57617
           X            0.99933   0.01276   0.03431
           Y           -0.01086   0.99843  -0.05496
           Z           -0.03496   0.05455   0.99790
 This molecule is an asymmetric top.
 Rotational symmetry number  1.
 Rotational temperatures (Kelvin)      1.04780     0.20075     0.19749
 Rotational constants (GHZ):          21.83263     4.18300     4.11500
    1 imaginary frequencies ignored.
 Zero-point vibrational energy     190558.0 (Joules/Mol)
                                   45.54445 (Kcal/Mol)
 Warning -- explicit consideration of   3 degrees of freedom as
           vibrations may cause significant error
 Vibrational temperatures:    376.21   571.94   628.98  1238.91  1431.17
          (Kelvin)           1482.94  1596.52  1620.52  1782.10  1829.47
                             1859.71  2023.76  2107.61  2162.24  2176.12
                             4283.87  4345.26  4369.04  4441.57  5509.79

 Zero-point correction=                           0.072580 (Hartree/Particle)
 Thermal correction to Energy=                    0.076710
 Thermal correction to Enthalpy=                  0.077654
 Thermal correction to Gibbs Free Energy=         0.045955
 Sum of electronic and zero-point Energies=           -254.204808
 Sum of electronic and thermal Energies=              -254.200678
 Sum of electronic and thermal Enthalpies=            -254.199734
 Sum of electronic and thermal Free Energies=         -254.231433

                     E (Thermal)             CV                S
                      KCal/Mol        Cal/Mol-Kelvin    Cal/Mol-Kelvin
 Total                   48.136             13.213             66.716
 Electronic               0.000              0.000              0.000
 Translational            0.889              2.981             38.389
 Rotational               0.889              2.981             24.262
 Vibrational             46.359              7.251              4.064
 Vibration     1          0.669              1.743              1.652
 Vibration     2          0.764              1.475              0.972
 Vibration     3          0.797              1.389              0.836

 Normal termination of Gaussian 16 at Thu Dec  5 18:23:40 2024.
