 Gaussian 16, Revision C.01,
 Gaussian 16:  ES64L-G16RevC.01  3-Jul-2019

 -------------------------
 # freq b3lyp/6-31g(2df,p)
 -------------------------

 -------------------------------------------------------------------
 energy: -15.614184499692 gnorm: 0.000439253721 xtb: 6.6.1 (8d0f1dd)
 -------------------------------------------------------------------
 Symbolic Z-matrix:
 Charge =  0 Multiplicity = 1

                         Standard orientation:
 ---------------------------------------------------------------------
 Center     Atomic      Atomic             Coordinates (Angstroms)
 Number     Number       Type             X           Y           Z
 ---------------------------------------------------------------------
      1          6           0        0.554896    0.499000    0.050264
      2          1           0        0.413899    1.179728   -0.803457
      3          1           0        0.530600    1.104260    0.968696
      4          6           0       -0.595615   -0.496958    0.058647
      5          1           0       -0.605542   -1.082536    0.985139
      6          1           0       -0.489471   -1.183976   -0.789426
      7          9           0       -1.786411    0.187120   -0.057786
      8          8           0        1.747283   -0.257129   -0.062738
      9          1           0        2.494261    0.343222    0.007559
 ---------------------------------------------------------------------

 SCF Done:  E(RB3LYP) =  -254.280644804     A.U. after   12 cycles

 The electronic state is 1-A.
 Alpha  occ. eigenvalues --  -24.66779 -19.14486 -10.25132 -10.23454  -1.18258
 Alpha  occ. eigenvalues --   -1.02629  -0.74683  -0.62099  -0.52924  -0.50030
 Alpha  occ. eigenvalues --   -0.46431  -0.45442  -0.42266  -0.36532  -0.32961
 Alpha  occ. eigenvalues --   -0.32232  -0.27756
 Alpha virt. eigenvalues --    0.06170   0.10790   0.14478   0.14910   0.15687
 Alpha virt. eigenvalues --    0.20028   0.21719   0.24884   0.42950   0.46802
 Alpha virt. eigenvalues --    0.49640   0.51671   0.53600   0.62847   0.65546

 Mulliken charges:
               1
     1  C   -0.099888
     2  H    0.100105
     3  H    0.098045
     4  C   -0.043085
     5  H    0.109211
     6  H    0.113021
     7  F   -0.154992
     8  O   -0.416970
     9  H    0.294553
 Sum of Mulliken charges =  -0.00000

 Dipole moment (field-independent basis, Debye):
    X=              1.5694    Y=              0.7686    Z=              0.3234  Tot=              1.7772
 Quadrupole moment (field-independent basis, Debye-Ang):
   XX=            -23.9625   YY=            -22.9430   ZZ=            -23.1139
   XY=              3.9865   XZ=              0.1947   YZ=             -0.0080

  Exact polarizability:      31.213       0.629      27.883       0.014       0.097      25.813
 Approx polarizability:      39.610      -1.370      37.883       0.172       0.242      35.063

                      1                      2                      3
                      A                      A                      A
 Frequencies --    117.1270               219.2408               287.0437
 Red. masses --      3.3746                 1.0863                 3.6955
 Frc consts  --      0.0273                 0.0308                 0.1794
 IR Inten    --     16.4008               104.1661                13.6946

                      4                      5                      6
                      A                      A                      A
 Frequencies --    470.1569               821.5160              1019.8281
 Red. masses --      7.7933                 1.0943                 2.5743
 Frc consts  --      1.0150                 0.4351                 1.5774
 IR Inten    --      1.3057                 0.9301                39.6129

                      7                      8                      9
                      A                      A                      A
 Frequencies --   1091.7734              1099.0605              1172.4743
 Red. masses --      6.3968                 5.2372                 1.5378
 Frc consts  --      4.4924                 3.7273                 1.2456
 IR Inten    --     70.2798                96.3948                 0.5387

                     10                     11                     12
                      A                      A                      A
 Frequencies --   1233.2731              1249.5427              1297.4999
 Red. masses --      1.1583                 1.1738                 1.1009
 Frc consts  --      1.0380                 1.0798                 1.0919
 IR Inten    --      2.9236                38.0197                 1.4237

                     13                     14                     15
                      A                      A                      A
 Frequencies --   1397.4891              1475.9573              1519.1777
 Red. masses --      1.2823                 1.5359                 1.0818
 Frc consts  --      1.4755                 1.9714                 1.4710
 IR Inten    --      7.7760                 4.1146                 0.0576

                     16                     17                     18
                      A                      A                      A
 Frequencies --   1533.4613              2981.1954              3014.3541
 Red. masses --      1.0869                 1.0549                 1.1062
 Frc consts  --      1.5059                 5.5237                 5.9223
 IR Inten    --      3.8408                48.5678                37.3833

                     19                     20                     21
                      A                      A                      A
 Frequencies --   3033.2231              3084.7678              3842.3243
 Red. masses --      1.0553                 1.1105                 1.0666
 Frc consts  --      5.7204                 6.2260                 9.2779
 IR Inten    --     40.1410                55.5416                28.8513

 - Thermochemistry -
 -------------------
 Temperature   298.150 Kelvin.  Pressure   1.00000 Atm.
 Atom     1 has atomic number  6 and mass  12.00000

 Molecular mass:    64.03244 amu.
 Principal axes and moments of inertia in atomic units:
                           1         2         3
     Eigenvalues --    58.23318 457.06922 491.03586
           X            0.99951   0.03120  -0.00071
           Y           -0.03120   0.99951   0.00023
           Z            0.00071  -0.00021   1.00000
 This molecule is an asymmetric top.
 Rotational symmetry number  1.
 Rotational temperatures (Kelvin)      1.48736     0.18950     0.17639
 Rotational constants (GHZ):          30.99163     3.94851     3.67538
 Zero-point vibrational energy     191166.2 (Joules/Mol)
                                   45.68981 (Kcal/Mol)
 Warning -- explicit consideration of   4 degrees of freedom as
           vibrations may cause significant error
 Vibrational temperatures:    168.52   315.44   412.99   676.45  1181.98
          (Kelvin)           1467.31  1570.82  1581.30  1686.93  1774.40
                             1797.81  1866.81  2010.68  2123.57  2185.76
                             2206.31  4289.28  4336.98  4364.13  4438.29
                             5528.25

 Zero-point correction=                           0.072811 (Hartree/Particle)
 Thermal correction to Energy=                    0.077799
 Thermal correction to Enthalpy=                  0.078743
 Thermal correction to Gibbs Free Energy=         0.045287
 Sum of electronic and zero-point Energies=           -254.207833
 Sum of electronic and thermal Energies=              -254.202846
 Sum of electronic and thermal Enthalpies=            -254.201902
 Sum of electronic and thermal Free Energies=         -254.235358

                     E (Thermal)             CV                S
                      KCal/Mol        Cal/Mol-Kelvin    Cal/Mol-Kelvin
 Total                   48.819             15.320             70.414
 Electronic               0.000              0.000              0.000
 Translational            0.889              2.981             38.389
 Rotational               0.889              2.981             24.084
 Vibrational             47.042              9.358              7.941
 Vibration     1          0.608              1.935              3.147
 Vibration     2          0.647              1.812              1.965
 Vibration     3          0.684              1.698              1.491
 Vibration     4          0.827              1.316              0.737

 Normal termination of Gaussian 16 at Thu Dec  5 18:23:41 2024.
