 Gaussian 16, Revision C.01,
 Gaussian 16:  ES64L-G16RevC.01  3-Jul-2019

 -------------------------
 # freq b3lyp/6-31g(2df,p)
 -------------------------

 -------------------------------------------------------------------
 energy: -15.614184499692 gnorm: 0.000439253721 xtb: 6.6.1 (8d0f1dd)
 -------------------------------------------------------------------
 Symbolic Z-matrix:
 Charge =  0 Multiplicity = 1

                         Standard orientation:
 ---------------------------------------------------------------------
 Center     Atomic      Atomic             Coordinates (Angstroms)
 Number     Number       Type             X           Y           Z
 ---------------------------------------------------------------------
      1          6           0       -0.660684    0.545518   -0.294762
      2          1           0       -1.109806    1.520940   -0.041192
      3          1           0       -0.569882    0.491712   -1.390341
      4          6           0        0.726852    0.496966    0.307220
      5          1           0        0.656310    0.401055    1.397763
      6          1           0        1.270961    1.418217    0.061716
      7          9           0        1.430902   -0.579685   -0.183927
      8          8           0       -1.410950   -0.534084    0.227028
      9          1           0       -2.235104   -0.596992   -0.263566
 ---------------------------------------------------------------------

 SCF Done:  E(RB3LYP) =  -254.281187365     A.U. after   12 cycles

 The electronic state is 1-A.
 Alpha  occ. eigenvalues --  -24.66171 -19.13978 -10.25186 -10.23544  -1.17748
 Alpha  occ. eigenvalues --   -1.02212  -0.75122  -0.61813  -0.53203  -0.49775
 Alpha  occ. eigenvalues --   -0.45935  -0.45058  -0.42291  -0.36377  -0.33012
 Alpha  occ. eigenvalues --   -0.31804  -0.27499
 Alpha virt. eigenvalues --    0.07179   0.11527   0.12632   0.15810   0.16582
 Alpha virt. eigenvalues --    0.18062   0.20775   0.22668   0.44129   0.46325
 Alpha virt. eigenvalues --    0.49440   0.50454   0.56958   0.60691   0.65904

 Mulliken charges:
               1
     1  C   -0.082696
     2  H    0.086195
     3  H    0.100529
     4  C   -0.034505
     5  H    0.111586
     6  H    0.095968
     7  F   -0.156128
     8  O   -0.412089
     9  H    0.291139
 Sum of Mulliken charges =  -0.00000

 Dipole moment (field-independent basis, Debye):
    X=             -1.4816    Y=              1.9006    Z=             -0.6364  Tot=              2.4925
 Quadrupole moment (field-independent basis, Debye-Ang):
   XX=            -21.5139   YY=            -23.8117   ZZ=            -23.0200
   XY=              1.4992   XZ=              2.7825   YZ=              0.5296

  Exact polarizability:      30.890       1.577      28.112       1.043      -0.194      26.813
 Approx polarizability:      38.315       0.937      39.061       0.297      -0.370      36.800

                      1                      2                      3
                      A                      A                      A
 Frequencies --    150.5910               220.7995               325.7589
 Red. masses --      4.0887                 1.0983                 2.4940
 Frc consts  --      0.0546                 0.0315                 0.1559
 IR Inten    --      3.8610               109.5345                 5.7184

                      4                      5                      6
                      A                      A                      A
 Frequencies --    494.6175               883.4675               910.1777
 Red. masses --      2.3075                 2.4887                 1.9473
 Frc consts  --      0.3326                 1.1444                 0.9504
 IR Inten    --     15.9701                14.2579                41.9829

                      7                      8                      9
                      A                      A                      A
 Frequencies --   1084.2820              1109.6146              1132.6592
 Red. masses --      2.1635                 3.4665                 2.7736
 Frc consts  --      1.4986                 2.5147                 2.0965
 IR Inten    --     61.5740                30.9120                43.0702

                     10                     11                     12
                      A                      A                      A
 Frequencies --   1244.3916              1269.9232              1316.5706
 Red. masses --      1.1660                 1.1196                 1.1025
 Frc consts  --      1.0638                 1.0638                 1.1260
 IR Inten    --     17.3748                22.8080                23.1704

                     13                     14                     15
                      A                      A                      A
 Frequencies --   1423.2375              1468.5297              1499.6835
 Red. masses --      1.2715                 1.5438                 1.0899
 Frc consts  --      1.5175                 1.9616                 1.4443
 IR Inten    --     11.6450                 3.2750                 6.7944

                     16                     17                     18
                      A                      A                      A
 Frequencies --   1506.2281              2961.3033              3006.4835
 Red. masses --      1.1005                 1.0615                 1.0934
 Frc consts  --      1.4710                 5.4844                 5.8229
 IR Inten    --      3.4344                49.8169                28.7498

                     19                     20                     21
                      A                      A                      A
 Frequencies --   3024.4324              3073.3563              3838.1301
 Red. masses --      1.0616                 1.1077                 1.0665
 Frc consts  --      5.7211                 6.1643                 9.2564
 IR Inten    --     57.3398                45.4588                24.5070

 - Thermochemistry -
 -------------------
 Temperature   298.150 Kelvin.  Pressure   1.00000 Atm.
 Atom     1 has atomic number  6 and mass  12.00000

 Molecular mass:    64.03244 amu.
 Principal axes and moments of inertia in atomic units:
                           1         2         3
     Eigenvalues --   106.66468 351.74842 404.49317
           X            0.99904   0.02986   0.03205
           Y           -0.02991   0.99955   0.00098
           Z           -0.03201  -0.00194   0.99949
 This molecule is an asymmetric top.
 Rotational symmetry number  1.
 Rotational temperatures (Kelvin)      0.81202     0.24624     0.21413
 Rotational constants (GHZ):          16.91976     5.13077     4.46173
 Zero-point vibrational energy     191069.0 (Joules/Mol)
                                   45.66658 (Kcal/Mol)
 Warning -- explicit consideration of   4 degrees of freedom as
           vibrations may cause significant error
 Vibrational temperatures:    216.67   317.68   468.69   711.64  1271.11
          (Kelvin)           1309.54  1560.04  1596.49  1629.64  1790.40
                             1827.14  1894.25  2047.72  2112.89  2157.71
                             2167.13  4260.65  4325.66  4351.48  4421.87
                             5522.21

 Zero-point correction=                           0.072774 (Hartree/Particle)
 Thermal correction to Energy=                    0.077636
 Thermal correction to Enthalpy=                  0.078580
 Thermal correction to Gibbs Free Energy=         0.045416
 Sum of electronic and zero-point Energies=           -254.208413
 Sum of electronic and thermal Energies=              -254.203551
 Sum of electronic and thermal Enthalpies=            -254.202607
 Sum of electronic and thermal Free Energies=         -254.235771

                     E (Thermal)             CV                S
                      KCal/Mol        Cal/Mol-Kelvin    Cal/Mol-Kelvin
 Total                   48.717             15.199             69.800
 Electronic               0.000              0.000              0.000
 Translational            0.889              2.981             38.389
 Rotational               0.889              2.981             24.232
 Vibrational             46.940              9.237              7.178
 Vibration     1          0.618              1.902              2.665
 Vibration     2          0.648              1.809              1.953
 Vibration     3          0.710              1.624              1.281
 Vibration     4          0.850              1.262              0.672

 Normal termination of Gaussian 16 at Thu Dec  5 18:22:50 2024.
