 Gaussian 16, Revision C.01,
 Gaussian 16:  ES64L-G16RevC.01  3-Jul-2019

 -------------------------
 # freq b3lyp/6-31g(2df,p)
 -------------------------

 -------------------------------------------------------------------
 energy: -15.614184499692 gnorm: 0.000439253721 xtb: 6.6.1 (8d0f1dd)
 -------------------------------------------------------------------
 Symbolic Z-matrix:
 Charge =  0 Multiplicity = 1

                         Standard orientation:
 ---------------------------------------------------------------------
 Center     Atomic      Atomic             Coordinates (Angstroms)
 Number     Number       Type             X           Y           Z
 ---------------------------------------------------------------------
      1          6           0       -0.552859    0.498863    0.000162
      2          1           0       -0.466457    1.141971    0.889248
      3          1           0       -0.466067    1.142526   -0.888460
      4          6           0        0.594134   -0.500119    0.000498
      5          1           0        0.544310   -1.138123   -0.889646
      6          1           0        0.544565   -1.136783    0.891635
      7          9           0        1.788202    0.188397   -0.000373
      8          8           0       -1.750602   -0.256408   -0.000717
      9          1           0       -2.493004    0.353640    0.002356
 ---------------------------------------------------------------------

 SCF Done:  E(RB3LYP) =  -254.280889947     A.U. after   12 cycles

 The electronic state is 1-A.
 Alpha  occ. eigenvalues --  -24.66798 -19.14491 -10.25138 -10.23452  -1.18271
 Alpha  occ. eigenvalues --   -1.02645  -0.74696  -0.62094  -0.52902  -0.50051
 Alpha  occ. eigenvalues --   -0.46497  -0.45442  -0.42259  -0.36539  -0.32943
 Alpha  occ. eigenvalues --   -0.32250  -0.27774
 Alpha virt. eigenvalues --    0.06142   0.10834   0.14464   0.14968   0.15689
 Alpha virt. eigenvalues --    0.20045   0.21682   0.24810   0.42993   0.46769
 Alpha virt. eigenvalues --    0.49808   0.51667   0.53626   0.62681   0.65660

 Mulliken charges:
               1
     1  C   -0.100132
     2  H    0.098905
     3  H    0.098914
     4  C   -0.042968
     5  H    0.111171
     6  H    0.111120
     7  F   -0.154872
     8  O   -0.416945
     9  H    0.294808
 Sum of Mulliken charges =  -0.00000

 Dipole moment (field-independent basis, Debye):
    X=             -1.5613    Y=              0.7771    Z=              0.0066  Tot=              1.7441
 Quadrupole moment (field-independent basis, Debye-Ang):
   XX=            -24.0148   YY=            -22.9245   ZZ=            -23.1030
   XY=             -4.0375   XZ=             -0.0132   YZ=              0.0023

  Exact polarizability:      31.159      -0.622      27.928      -0.006       0.003      25.815
 Approx polarizability:      39.544       1.393      37.947      -0.009       0.007      35.044

                      1                      2                      3
                      A                      A                      A
 Frequencies --    120.4755               221.0569               281.4332
 Red. masses --      3.3862                 1.0775                 3.8725
 Frc consts  --      0.0290                 0.0310                 0.1807
 IR Inten    --     20.1659               103.7037                10.9421

                      4                      5                      6
                      A                      A                      A
 Frequencies --    470.8115               821.9855              1020.7562
 Red. masses --      7.9576                 1.0838                 2.5539
 Frc consts  --      1.0393                 0.4315                 1.5678
 IR Inten    --      1.3022                 0.8508                39.7687

                      7                      8                      9
                      A                      A                      A
 Frequencies --   1092.7108              1098.7336              1175.4709
 Red. masses --      5.7617                 5.8336                 1.5281
 Frc consts  --      4.0533                 4.1493                 1.2440
 IR Inten    --     43.4238               123.7705                 0.0928

                     10                     11                     12
                      A                      A                      A
 Frequencies --   1231.7200              1247.6127              1297.9326
 Red. masses --      1.1562                 1.1801                 1.1032
 Frc consts  --      1.0335                 1.0823                 1.0950
 IR Inten    --      2.8328                39.8441                 0.0797

                     13                     14                     15
                      A                      A                      A
 Frequencies --   1397.1758              1476.7609              1520.1797
 Red. masses --      1.2845                 1.5434                 1.0818
 Frc consts  --      1.4774                 1.9831                 1.4730
 IR Inten    --      7.5788                 4.0728                 0.0266

                     16                     17                     18
                      A                      A                      A
 Frequencies --   1534.0329              2980.7101              3013.0338
 Red. masses --      1.0869                 1.0544                 1.1067
 Frc consts  --      1.5070                 5.5193                 5.9196
 IR Inten    --      3.6920                48.9635                37.7872

                     19                     20                     21
                      A                      A                      A
 Frequencies --   3033.5201              3085.0034              3842.5625
 Red. masses --      1.0552                 1.1106                 1.0666
 Frc consts  --      5.7208                 6.2276                 9.2792
 IR Inten    --     40.7686                55.7082                29.1703

 - Thermochemistry -
 -------------------
 Temperature   298.150 Kelvin.  Pressure   1.00000 Atm.
 Atom     1 has atomic number  6 and mass  12.00000

 Molecular mass:    64.03244 amu.
 Principal axes and moments of inertia in atomic units:
                           1         2         3
     Eigenvalues --    57.70287 457.12869 492.03814
           X            0.99951  -0.03136  -0.00004
           Y            0.03136   0.99951   0.00004
           Z            0.00004  -0.00004   1.00000
 This molecule is an asymmetric top.
 Rotational symmetry number  1.
 Rotational temperatures (Kelvin)      1.50103     0.18947     0.17603
 Rotational constants (GHZ):          31.27645     3.94799     3.66789
 Zero-point vibrational energy     191185.3 (Joules/Mol)
                                   45.69437 (Kcal/Mol)
 Warning -- explicit consideration of   4 degrees of freedom as
           vibrations may cause significant error
 Vibrational temperatures:    173.34   318.05   404.92   677.39  1182.65
          (Kelvin)           1468.64  1572.17  1580.83  1691.24  1772.17
                             1795.04  1867.44  2010.22  2124.73  2187.20
                             2207.13  4288.58  4335.08  4364.56  4438.63
                             5528.59

 Zero-point correction=                           0.072819 (Hartree/Particle)
 Thermal correction to Energy=                    0.077803
 Thermal correction to Enthalpy=                  0.078748
 Thermal correction to Gibbs Free Energy=         0.045313
 Sum of electronic and zero-point Energies=           -254.208071
 Sum of electronic and thermal Energies=              -254.203087
 Sum of electronic and thermal Enthalpies=            -254.202142
 Sum of electronic and thermal Free Energies=         -254.235577

                     E (Thermal)             CV                S
                      KCal/Mol        Cal/Mol-Kelvin    Cal/Mol-Kelvin
 Total                   48.822             15.320             70.368
 Electronic               0.000              0.000              0.000
 Translational            0.889              2.981             38.389
 Rotational               0.889              2.981             24.077
 Vibrational             47.045              9.358              7.902
 Vibration     1          0.609              1.932              3.093
 Vibration     2          0.648              1.809              1.950
 Vibration     3          0.681              1.708              1.525
 Vibration     4          0.828              1.315              0.735

 Normal termination of Gaussian 16 at Thu Dec  5 18:23:56 2024.
