 Gaussian 16, Revision C.01,
 Gaussian 16:  ES64L-G16RevC.01  3-Jul-2019

 -------------------------
 # freq b3lyp/6-31g(2df,p)
 -------------------------

 -------------------------------------------------------------------
 energy: -15.614184499692 gnorm: 0.000439253721 xtb: 6.6.1 (8d0f1dd)
 -------------------------------------------------------------------
 Symbolic Z-matrix:
 Charge =  0 Multiplicity = 1

                         Standard orientation:
 ---------------------------------------------------------------------
 Center     Atomic      Atomic             Coordinates (Angstroms)
 Number     Number       Type             X           Y           Z
 ---------------------------------------------------------------------
      1          6           0       -0.648115    0.510752   -0.328310
      2          1           0       -1.080153    1.513131   -0.169297
      3          1           0       -0.504647    0.373776   -1.410282
      4          6           0        0.709960    0.465469    0.341517
      5          1           0        0.586045    0.290292    1.416864
      6          1           0        1.232763    1.418508    0.189753
      7          9           0        1.484593   -0.542438   -0.191483
      8          8           0       -1.463631   -0.498173    0.239135
      9          1           0       -2.257370   -0.585712   -0.296015
 ---------------------------------------------------------------------

 SCF Done:  E(RB3LYP) =  -254.280806694     A.U. after   12 cycles

 The electronic state is 1-A.
 Alpha  occ. eigenvalues --  -24.66193 -19.14010 -10.25171 -10.23535  -1.17741
 Alpha  occ. eigenvalues --   -1.02208  -0.75081  -0.61874  -0.53197  -0.49759
 Alpha  occ. eigenvalues --   -0.45775  -0.45211  -0.42264  -0.36378  -0.33027
 Alpha  occ. eigenvalues --   -0.31940  -0.27476
 Alpha virt. eigenvalues --    0.07227   0.11364   0.12582   0.15306   0.16909
 Alpha virt. eigenvalues --    0.18263   0.21010   0.22561   0.44395   0.45653
 Alpha virt. eigenvalues --    0.49621   0.50504   0.57662   0.60733   0.66274

 Mulliken charges:
               1
     1  C   -0.081021
     2  H    0.086320
     3  H    0.103317
     4  C   -0.035372
     5  H    0.114499
     6  H    0.095671
     7  F   -0.158753
     8  O   -0.415232
     9  H    0.290570
 Sum of Mulliken charges =   0.00000

 Dipole moment (field-independent basis, Debye):
    X=             -1.4639    Y=              1.7369    Z=             -0.6969  Tot=              2.3760
 Quadrupole moment (field-independent basis, Debye-Ang):
   XX=            -22.0308   YY=            -23.7099   ZZ=            -22.9192
   XY=              1.5038   XZ=              3.0802   YZ=              0.5666

  Exact polarizability:      30.976       1.611      27.817       1.066      -0.179      26.922
 Approx polarizability:      38.501       1.057      38.495       0.158      -0.344      37.016

                      1                      2                      3
                      A                      A                      A
 Frequencies --    129.6821               226.9342               336.9156
 Red. masses --      3.6982                 1.0959                 2.6543
 Frc consts  --      0.0366                 0.0333                 0.1775
 IR Inten    --      2.0367               112.9764                 4.3399

                      4                      5                      6
                      A                      A                      A
 Frequencies --    483.0145               877.7594               926.0152
 Red. masses --      2.3149                 2.5124                 2.0242
 Frc consts  --      0.3182                 1.1405                 1.0227
 IR Inten    --     15.7508                16.0424                47.5676

                      7                      8                      9
                      A                      A                      A
 Frequencies --   1074.5708              1110.4923              1123.0775
 Red. masses --      2.0445                 3.5203                 2.8656
 Frc consts  --      1.3909                 2.5578                 2.1295
 IR Inten    --     47.2440                37.0742                40.2357

                     10                     11                     12
                      A                      A                      A
 Frequencies --   1240.5874              1276.1985              1314.0722
 Red. masses --      1.1647                 1.1249                 1.0988
 Frc consts  --      1.0561                 1.0794                 1.1180
 IR Inten    --     13.2349                36.3689                17.7818

                     13                     14                     15
                      A                      A                      A
 Frequencies --   1419.3406              1466.4997              1500.1739
 Red. masses --      1.2669                 1.5253                 1.0903
 Frc consts  --      1.5037                 1.9327                 1.4457
 IR Inten    --     10.6163                 3.8865                 6.4445

                     16                     17                     18
                      A                      A                      A
 Frequencies --   1505.1217              2963.1866              3013.8803
 Red. masses --      1.1009                 1.0630                 1.0886
 Frc consts  --      1.4694                 5.4995                 5.8259
 IR Inten    --      4.0611                49.4330                22.3655

                     19                     20                     21
                      A                      A                      A
 Frequencies --   3027.2052              3077.4667              3836.4324
 Red. masses --      1.0657                 1.1070                 1.0664
 Frc consts  --      5.7541                 6.1768                 9.2477
 IR Inten    --     61.3657                40.6952                23.6448

 - Thermochemistry -
 -------------------
 Temperature   298.150 Kelvin.  Pressure   1.00000 Atm.
 Atom     1 has atomic number  6 and mass  12.00000

 Molecular mass:    64.03244 amu.
 Principal axes and moments of inertia in atomic units:
                           1         2         3
     Eigenvalues --   101.19680 371.46481 412.74449
           X            0.99909   0.02663   0.03325
           Y           -0.02673   0.99964   0.00248
           Z           -0.03317  -0.00337   0.99944
 This molecule is an asymmetric top.
 Rotational symmetry number  1.
 Rotational temperatures (Kelvin)      0.85590     0.23317     0.20985
 Rotational constants (GHZ):          17.83398     4.85844     4.37254
 Zero-point vibrational energy     190975.6 (Joules/Mol)
                                   45.64426 (Kcal/Mol)
 Warning -- explicit consideration of   4 degrees of freedom as
           vibrations may cause significant error
 Vibrational temperatures:    186.58   326.51   484.75   694.95  1262.90
          (Kelvin)           1332.33  1546.07  1597.75  1615.86  1784.93
                             1836.16  1890.66  2042.11  2109.97  2158.42
                             2165.53  4263.36  4336.30  4355.47  4427.79
                             5519.77

 Zero-point correction=                           0.072739 (Hartree/Particle)
 Thermal correction to Energy=                    0.077625
 Thermal correction to Enthalpy=                  0.078569
 Thermal correction to Gibbs Free Energy=         0.045293
 Sum of electronic and zero-point Energies=           -254.208068
 Sum of electronic and thermal Energies=              -254.203182
 Sum of electronic and thermal Enthalpies=            -254.202238
 Sum of electronic and thermal Free Energies=         -254.235513

                     E (Thermal)             CV                S
                      KCal/Mol        Cal/Mol-Kelvin    Cal/Mol-Kelvin
 Total                   48.710             15.219             70.034
 Electronic               0.000              0.000              0.000
 Translational            0.889              2.981             38.389
 Rotational               0.889              2.981             24.254
 Vibrational             46.933              9.258              7.391
 Vibration     1          0.612              1.924              2.951
 Vibration     2          0.651              1.800              1.903
 Vibration     3          0.718              1.602              1.227
 Vibration     4          0.839              1.288              0.702

 Normal termination of Gaussian 16 at Thu Dec  5 18:23:43 2024.
