 Gaussian 16, Revision C.01,
 Gaussian 16:  ES64L-G16RevC.01  3-Jul-2019

 -------------------------
 # freq b3lyp/6-31g(2df,p)
 -------------------------

 -------------------------------------------------------------------
 energy: -15.614184499692 gnorm: 0.000439253721 xtb: 6.6.1 (8d0f1dd)
 -------------------------------------------------------------------
 Symbolic Z-matrix:
 Charge =  0 Multiplicity = 1

                         Standard orientation:
 ---------------------------------------------------------------------
 Center     Atomic      Atomic             Coordinates (Angstroms)
 Number     Number       Type             X           Y           Z
 ---------------------------------------------------------------------
      1          6           0        0.733878    0.656937   -0.047253
      2          1           0        1.022414    1.127906   -1.000173
      3          1           0        1.115447    1.300594    0.760133
      4          6           0       -0.813595    0.594370    0.049145
      5          1           0       -1.270089    1.185842   -0.753448
      6          1           0       -1.152742    1.003122    1.009056
      7          9           0       -1.266063   -0.696125   -0.037363
      8          8           0        1.244265   -0.657857    0.036289
      9          1           0        2.203718   -0.597323    0.019033
 ---------------------------------------------------------------------

 SCF Done:  E(RB3LYP) =  -254.270600841     A.U. after   12 cycles

 The electronic state is 1-A.
 Alpha  occ. eigenvalues --  -24.66167 -19.13807 -10.25349 -10.23580  -1.17870
 Alpha  occ. eigenvalues --   -1.02008  -0.74348  -0.61791  -0.52655  -0.49676
 Alpha  occ. eigenvalues --   -0.46726  -0.44557  -0.42290  -0.35332  -0.32764
 Alpha  occ. eigenvalues --   -0.32090  -0.26693
 Alpha virt. eigenvalues --    0.05979   0.10930   0.12364   0.13003   0.16482
 Alpha virt. eigenvalues --    0.21920   0.22481   0.26088   0.42087   0.47724
 Alpha virt. eigenvalues --    0.49527   0.50162   0.52652   0.61416   0.65564

 Mulliken charges:
               1
     1  C   -0.098430
     2  H    0.091630
     3  H    0.092377
     4  C   -0.048532
     5  H    0.102442
     6  H    0.102067
     7  F   -0.133854
     8  O   -0.398140
     9  H    0.290441
 Sum of Mulliken charges =   0.00000

 Dipole moment (field-independent basis, Debye):
    X=              1.5537    Y=              2.4112    Z=              0.0065  Tot=              2.8684
 Quadrupole moment (field-independent basis, Debye-Ang):
   XX=            -19.7726   YY=            -24.3188   ZZ=            -23.2313
   XY=             -1.3550   XZ=             -0.1310   YZ=              0.0341

  Exact polarizability:      30.886      -1.273      28.275      -0.099      -0.125      25.822
 Approx polarizability:      37.593      -0.276      39.873       0.101      -0.126      34.994

 ******    1 imaginary frequencies (negative Signs) ******

                      1                      2                      3
                      A                      A                      A
 Frequencies --   -204.2650               237.9993               287.7392
 Red. masses --      1.9799                 1.0912                 9.1374
 Frc consts  --      0.0487                 0.0364                 0.4457
 IR Inten    --      0.0970               119.2128                 0.9312

                      4                      5                      6
                      A                      A                      A
 Frequencies --    599.2562               860.3581               904.4762
 Red. masses --      4.9293                 1.2016                 3.3753
 Frc consts  --      1.0430                 0.5240                 1.6269
 IR Inten    --     27.0477                 4.2464                 6.3316

                      7                      8                      9
                      A                      A                      A
 Frequencies --   1107.3512              1120.7385              1166.9104
 Red. masses --      4.9580                 4.8581                 1.7113
 Frc consts  --      3.5820                 3.5953                 1.3730
 IR Inten    --      8.7382               167.7812                 6.5031

                     10                     11                     12
                      A                      A                      A
 Frequencies --   1238.9306              1274.1408              1294.7254
 Red. masses --      1.1145                 1.1009                 1.1010
 Frc consts  --      1.0079                 1.0530                 1.0874
 IR Inten    --     14.0114                11.4917                 2.1691

                     13                     14                     15
                      A                      A                      A
 Frequencies --   1433.3739              1468.8689              1517.2729
 Red. masses --      1.2617                 1.4069                 1.0863
 Frc consts  --      1.5272                 1.7884                 1.4734
 IR Inten    --     15.3845                 0.7701                 1.0721

                     16                     17                     18
                      A                      A                      A
 Frequencies --   1534.9002              2967.0484              2990.9875
 Red. masses --      1.0774                 1.0567                 1.1046
 Frc consts  --      1.4955                 5.4807                 5.8223
 IR Inten    --      1.2587                56.9715                38.5082

                     19                     20                     21
                      A                      A                      A
 Frequencies --   3022.5914              3065.5966              3833.8101
 Red. masses --      1.0566                 1.1094                 1.0664
 Frc consts  --      5.6875                 6.1430                 9.2348
 IR Inten    --     55.5889                65.5596                23.7622

 - Thermochemistry -
 -------------------
 Temperature   298.150 Kelvin.  Pressure   1.00000 Atm.
 Atom     1 has atomic number  6 and mass  12.00000

 Molecular mass:    64.03244 amu.
 Principal axes and moments of inertia in atomic units:
                           1         2         3
     Eigenvalues --   122.09331 296.42521 395.01751
           X            0.99913  -0.04135  -0.00493
           Y            0.04134   0.99914  -0.00154
           Z            0.00499   0.00134   0.99999
 This molecule is an asymmetric top.
 Rotational symmetry number  1.
 Rotational temperatures (Kelvin)      0.70941     0.29219     0.21927
 Rotational constants (GHZ):          14.78166     6.08835     4.56876
    1 imaginary frequencies ignored.
 Zero-point vibrational energy     190966.3 (Joules/Mol)
                                   45.64205 (Kcal/Mol)
 Warning -- explicit consideration of   3 degrees of freedom as
           vibrations may cause significant error
 Vibrational temperatures:    342.43   413.99   862.20  1237.86  1301.34
          (Kelvin)           1593.23  1612.49  1678.92  1782.54  1833.20
                             1862.82  2062.31  2113.37  2183.02  2208.38
                             4268.92  4303.36  4348.83  4410.71  5516.00

 Zero-point correction=                           0.072735 (Hartree/Particle)
 Thermal correction to Energy=                    0.076909
 Thermal correction to Enthalpy=                  0.077853
 Thermal correction to Gibbs Free Energy=         0.046053
 Sum of electronic and zero-point Energies=           -254.197866
 Sum of electronic and thermal Energies=              -254.193692
 Sum of electronic and thermal Enthalpies=            -254.192748
 Sum of electronic and thermal Free Energies=         -254.224548

                     E (Thermal)             CV                S
                      KCal/Mol        Cal/Mol-Kelvin    Cal/Mol-Kelvin
 Total                   48.261             13.096             66.928
 Electronic               0.000              0.000              0.000
 Translational            0.889              2.981             38.389
 Rotational               0.889              2.981             24.173
 Vibrational             46.483              7.135              4.365
 Vibration     1          0.656              1.782              1.818
 Vibration     2          0.685              1.696              1.487
 Vibration     3          0.957              1.033              0.451

 Normal termination of Gaussian 16 at Thu Dec  5 18:22:44 2024.
