 Gaussian 16, Revision C.01,
 Gaussian 16:  ES64L-G16RevC.01  3-Jul-2019

 -------------------------
 # freq b3lyp/6-31g(2df,p)
 -------------------------

 -------------------------------------------------------------------
 energy: -15.614184499692 gnorm: 0.000439253721 xtb: 6.6.1 (8d0f1dd)
 -------------------------------------------------------------------
 Symbolic Z-matrix:
 Charge =  0 Multiplicity = 1

                         Standard orientation:
 ---------------------------------------------------------------------
 Center     Atomic      Atomic             Coordinates (Angstroms)
 Number     Number       Type             X           Y           Z
 ---------------------------------------------------------------------
      1          6           0        0.614607    0.441693   -0.352200
      2          1           0        0.367470    0.190097   -1.393619
      3          1           0        0.949071    1.490262   -0.327928
      4          6           0       -0.663341    0.280472    0.472582
      5          1           0       -1.066565    1.254376    0.773328
      6          1           0       -0.435265   -0.306244    1.369210
      7          9           0       -1.640344   -0.365287   -0.258197
      8          8           0        1.606435   -0.414045    0.192966
      9          1           0        2.389306   -0.361538   -0.363237
 ---------------------------------------------------------------------

 SCF Done:  E(RB3LYP) =  -254.277373822     A.U. after   11 cycles

 The electronic state is 1-A.
 Alpha  occ. eigenvalues --  -24.66291 -19.14130 -10.25130 -10.23485  -1.17791
 Alpha  occ. eigenvalues --   -1.02247  -0.74671  -0.62058  -0.53058  -0.49685
 Alpha  occ. eigenvalues --   -0.45593  -0.45379  -0.42292  -0.36379  -0.32918
 Alpha  occ. eigenvalues --   -0.32074  -0.27406
 Alpha virt. eigenvalues --    0.06990   0.10187   0.13354   0.14397   0.16329
 Alpha virt. eigenvalues --    0.19773   0.22683   0.23034   0.43015   0.46076
 Alpha virt. eigenvalues --    0.49376   0.50647   0.57487   0.62531   0.68290

 Mulliken charges:
               1
     1  C   -0.085004
     2  H    0.108374
     3  H    0.090056
     4  C   -0.042385
     5  H    0.098984
     6  H    0.121446
     7  F   -0.161701
     8  O   -0.419002
     9  H    0.289231
 Sum of Mulliken charges =  -0.00000

 Dipole moment (field-independent basis, Debye):
    X=              1.5256    Y=              1.4375    Z=             -0.4921  Tot=              2.1531
 Quadrupole moment (field-independent basis, Debye-Ang):
   XX=            -22.9290   YY=            -23.6390   ZZ=            -22.7610
   XY=             -0.4515   XZ=             -3.6023   YZ=              0.3261

  Exact polarizability:      31.442      -1.087      26.705      -1.218      -0.336      27.003
 Approx polarizability:      39.325      -0.857      36.634       0.215      -0.572      37.014

 ******    1 imaginary frequencies (negative Signs) ******

                      1                      2                      3
                      A                      A                      A
 Frequencies --   -122.6960               262.4227               398.1183
 Red. masses --      2.8287                 1.1036                 3.7192
 Frc consts  --      0.0251                 0.0448                 0.3473
 IR Inten    --      2.7067               116.3338                 2.7828

                      4                      5                      6
                      A                      A                      A
 Frequencies --    437.0865               861.0771               995.3392
 Red. masses --      2.6355                 1.9855                 2.5271
 Frc consts  --      0.2967                 0.8674                 1.4751
 IR Inten    --     15.6640                13.2893                87.9744

                      7                      8                      9
                      A                      A                      A
 Frequencies --   1030.4392              1109.8534              1126.8116
 Red. masses --      2.4022                 3.2664                 2.6083
 Frc consts  --      1.5028                 2.3706                 1.9513
 IR Inten    --     15.8425                26.1325                33.1661

                     10                     11                     12
                      A                      A                      A
 Frequencies --   1238.8007              1271.5523              1292.3888
 Red. masses --      1.1381                 1.1212                 1.1094
 Frc consts  --      1.0290                 1.0681                 1.0918
 IR Inten    --     16.3003                52.1580                 4.8478

                     13                     14                     15
                      A                      A                      A
 Frequencies --   1406.4361              1464.7912              1502.7909
 Red. masses --      1.2556                 1.4425                 1.0904
 Frc consts  --      1.4633                 1.8236                 1.4509
 IR Inten    --      7.8716                 3.7817                 0.8623

                     16                     17                     18
                      A                      A                      A
 Frequencies --   1512.5531              2977.5542              3020.0188
 Red. masses --      1.0845                 1.0606                 1.0926
 Frc consts  --      1.4618                 5.5401                 5.8711
 IR Inten    --      7.9156                47.5833                18.7296

                     19                     20                     21
                      A                      A                      A
 Frequencies --   3036.8852              3087.5432              3829.4158
 Red. masses --      1.0653                 1.1079                 1.0662
 Frc consts  --      5.7889                 6.2225                 9.2124
 IR Inten    --     58.7527                34.4915                21.4360

 - Thermochemistry -
 -------------------
 Temperature   298.150 Kelvin.  Pressure   1.00000 Atm.
 Atom     1 has atomic number  6 and mass  12.00000

 Molecular mass:    64.03244 amu.
 Principal axes and moments of inertia in atomic units:
                           1         2         3
     Eigenvalues --    82.59542 431.52330 438.47963
           X            0.99933  -0.01262  -0.03437
           Y            0.01054   0.99814  -0.05999
           Z            0.03506   0.05959   0.99761
 This molecule is an asymmetric top.
 Rotational symmetry number  1.
 Rotational temperatures (Kelvin)      1.04865     0.20072     0.19753
 Rotational constants (GHZ):          21.85038     4.18226     4.11591
    1 imaginary frequencies ignored.
 Zero-point vibrational energy     190576.4 (Joules/Mol)
                                   45.54884 (Kcal/Mol)
 Warning -- explicit consideration of   3 degrees of freedom as
           vibrations may cause significant error
 Vibrational temperatures:    377.57   572.80   628.87  1238.90  1432.07
          (Kelvin)           1482.57  1596.83  1621.23  1782.36  1829.48
                             1859.46  2023.55  2107.51  2162.18  2176.23
                             4284.04  4345.13  4369.40  4442.29  5509.68

 Zero-point correction=                           0.072587 (Hartree/Particle)
 Thermal correction to Energy=                    0.076715
 Thermal correction to Enthalpy=                  0.077659
 Thermal correction to Gibbs Free Energy=         0.045965
 Sum of electronic and zero-point Energies=           -254.204787
 Sum of electronic and thermal Energies=              -254.200659
 Sum of electronic and thermal Enthalpies=            -254.199715
 Sum of electronic and thermal Free Energies=         -254.231409

                     E (Thermal)             CV                S
                      KCal/Mol        Cal/Mol-Kelvin    Cal/Mol-Kelvin
 Total                   48.139             13.209             66.707
 Electronic               0.000              0.000              0.000
 Translational            0.889              2.981             38.389
 Rotational               0.889              2.981             24.262
 Vibrational             46.362              7.247              4.056
 Vibration     1          0.670              1.742              1.646
 Vibration     2          0.764              1.474              0.970
 Vibration     3          0.797              1.389              0.836

 Normal termination of Gaussian 16 at Thu Dec  5 18:23:58 2024.
