 Gaussian 16, Revision C.01,
 Gaussian 16:  ES64L-G16RevC.01  3-Jul-2019

 -------------------------
 # freq b3lyp/6-31g(2df,p)
 -------------------------

 -------------------------------------------------------------------
 energy: -15.614184499692 gnorm: 0.000439253721 xtb: 6.6.1 (8d0f1dd)
 -------------------------------------------------------------------
 Symbolic Z-matrix:
 Charge =  0 Multiplicity = 1

                         Standard orientation:
 ---------------------------------------------------------------------
 Center     Atomic      Atomic             Coordinates (Angstroms)
 Number     Number       Type             X           Y           Z
 ---------------------------------------------------------------------
      1          6           0       -0.733939    0.656866   -0.046519
      2          1           0       -1.114718    1.299668    0.762032
      3          1           0       -1.023901    1.129418   -0.998313
      4          6           0        0.813581    0.594483    0.048303
      5          1           0        1.153407    1.004834    1.007284
      6          1           0        1.269418    1.185303   -0.755216
      7          9           0        1.266229   -0.696216   -0.036834
      8          8           0       -1.244293   -0.658020    0.035887
      9          1           0       -2.203769   -0.597225    0.017919
 ---------------------------------------------------------------------

 SCF Done:  E(RB3LYP) =  -254.270582140     A.U. after   12 cycles

 The electronic state is 1-A.
 Alpha  occ. eigenvalues --  -24.66168 -19.13810 -10.25352 -10.23582  -1.17865
 Alpha  occ. eigenvalues --   -1.02010  -0.74350  -0.61790  -0.52656  -0.49671
 Alpha  occ. eigenvalues --   -0.46727  -0.44555  -0.42285  -0.35334  -0.32766
 Alpha  occ. eigenvalues --   -0.32095  -0.26691
 Alpha virt. eigenvalues --    0.05975   0.10927   0.12356   0.12997   0.16479
 Alpha virt. eigenvalues --    0.21927   0.22484   0.26095   0.42083   0.47724
 Alpha virt. eigenvalues --    0.49530   0.50160   0.52651   0.61417   0.65568

 Mulliken charges:
               1
     1  C   -0.098454
     2  H    0.092360
     3  H    0.091628
     4  C   -0.048567
     5  H    0.102110
     6  H    0.102493
     7  F   -0.133924
     8  O   -0.398097
     9  H    0.290451
 Sum of Mulliken charges =  -0.00000

 Dipole moment (field-independent basis, Debye):
    X=             -1.5539    Y=              2.4121    Z=              0.0048  Tot=              2.8692
 Quadrupole moment (field-independent basis, Debye-Ang):
   XX=            -19.7731   YY=            -24.3181   ZZ=            -23.2329
   XY=              1.3553   XZ=              0.1332   YZ=              0.0345

  Exact polarizability:      30.885       1.272      28.281       0.101      -0.122      25.820
 Approx polarizability:      37.590       0.272      39.884      -0.093      -0.123      34.991

 ******    1 imaginary frequencies (negative Signs) ******

                      1                      2                      3
                      A                      A                      A
 Frequencies --   -204.3933               239.8964               287.7578
 Red. masses --      1.9790                 1.0913                 9.1487
 Frc consts  --      0.0487                 0.0370                 0.4463
 IR Inten    --      0.0889               119.2190                 0.9291

                      4                      5                      6
                      A                      A                      A
 Frequencies --    599.4562               860.4685               904.6091
 Red. masses --      4.9437                 1.2003                 3.3840
 Frc consts  --      1.0467                 0.5236                 1.6316
 IR Inten    --     27.0773                 4.2057                 6.3582

                      7                      8                      9
                      A                      A                      A
 Frequencies --   1107.1545              1120.5756              1166.8484
 Red. masses --      4.9320                 4.9084                 1.7111
 Frc consts  --      3.5619                 3.6314                 1.3726
 IR Inten    --      8.8403               167.4769                 6.4073

                     10                     11                     12
                      A                      A                      A
 Frequencies --   1239.3086              1273.9894              1294.6207
 Red. masses --      1.1129                 1.1007                 1.1009
 Frc consts  --      1.0070                 1.0525                 1.0872
 IR Inten    --     14.1541                11.5722                 2.1655

                     13                     14                     15
                      A                      A                      A
 Frequencies --   1433.4430              1469.1651              1517.4330
 Red. masses --      1.2617                 1.4070                 1.0862
 Frc consts  --      1.5274                 1.7893                 1.4736
 IR Inten    --     15.3853                 0.7859                 1.0603

                     16                     17                     18
                      A                      A                      A
 Frequencies --   1535.1748              2966.4425              2990.0653
 Red. masses --      1.0774                 1.0567                 1.1046
 Frc consts  --      1.4960                 5.4786                 5.8188
 IR Inten    --      1.2628                57.0434                38.9278

                     19                     20                     21
                      A                      A                      A
 Frequencies --   3022.4917              3065.2162              3833.1180
 Red. masses --      1.0565                 1.1095                 1.0664
 Frc consts  --      5.6868                 6.1416                 9.2315
 IR Inten    --     55.3055                65.5022                23.7493

 - Thermochemistry -
 -------------------
 Temperature   298.150 Kelvin.  Pressure   1.00000 Atm.
 Atom     1 has atomic number  6 and mass  12.00000

 Molecular mass:    64.03244 amu.
 Principal axes and moments of inertia in atomic units:
                           1         2         3
     Eigenvalues --   122.10889 296.44830 395.09023
           X            0.99913   0.04134   0.00489
           Y           -0.04133   0.99914  -0.00149
           Z           -0.00495   0.00129   0.99999
 This molecule is an asymmetric top.
 Rotational symmetry number  1.
 Rotational temperatures (Kelvin)      0.70932     0.29217     0.21923
 Rotational constants (GHZ):          14.77977     6.08788     4.56792
    1 imaginary frequencies ignored.
 Zero-point vibrational energy     190967.3 (Joules/Mol)
                                   45.64227 (Kcal/Mol)
 Warning -- explicit consideration of   3 degrees of freedom as
           vibrations may cause significant error
 Vibrational temperatures:    345.16   414.02   862.48  1238.02  1301.53
          (Kelvin)           1592.95  1612.26  1678.83  1783.09  1832.99
                             1862.67  2062.40  2113.80  2183.25  2208.77
                             4268.05  4302.04  4348.69  4410.16  5515.00

 Zero-point correction=                           0.072736 (Hartree/Particle)
 Thermal correction to Energy=                    0.076906
 Thermal correction to Enthalpy=                  0.077850
 Thermal correction to Gibbs Free Energy=         0.046058
 Sum of electronic and zero-point Energies=           -254.197847
 Sum of electronic and thermal Energies=              -254.193676
 Sum of electronic and thermal Enthalpies=            -254.192732
 Sum of electronic and thermal Free Energies=         -254.224525

                     E (Thermal)             CV                S
                      KCal/Mol        Cal/Mol-Kelvin    Cal/Mol-Kelvin
 Total                   48.259             13.093             66.913
 Electronic               0.000              0.000              0.000
 Translational            0.889              2.981             38.389
 Rotational               0.889              2.981             24.173
 Vibrational             46.482              7.131              4.351
 Vibration     1          0.657              1.779              1.804
 Vibration     2          0.685              1.696              1.487
 Vibration     3          0.958              1.033              0.451

 Normal termination of Gaussian 16 at Thu Dec  5 18:22:50 2024.
