 Gaussian 16, Revision C.01,
 Gaussian 16:  ES64L-G16RevC.01  3-Jul-2019

 -------------------------
 # freq b3lyp/6-31g(2df,p)
 -------------------------

 -------------------------------------------------------------------
 energy: -15.614184499692 gnorm: 0.000439253721 xtb: 6.6.1 (8d0f1dd)
 -------------------------------------------------------------------
 Symbolic Z-matrix:
 Charge =  0 Multiplicity = 1

                         Standard orientation:
 ---------------------------------------------------------------------
 Center     Atomic      Atomic             Coordinates (Angstroms)
 Number     Number       Type             X           Y           Z
 ---------------------------------------------------------------------
      1          6           0        0.726248    0.649486   -0.093430
      2          1           0        0.957484    1.031415   -1.100917
      3          1           0        1.140256    1.369966    0.628855
      4          6           0       -0.805155    0.588535    0.097265
      5          1           0       -1.304278    1.259573   -0.612226
      6          1           0       -1.074131    0.903106    1.113737
      7          9           0       -1.274516   -0.688321   -0.072767
      8          8           0        1.251854   -0.651357    0.072307
      9          1           0        2.209926   -0.586444    0.023990
 ---------------------------------------------------------------------

 SCF Done:  E(RB3LYP) =  -254.272347114     A.U. after   12 cycles

 The electronic state is 1-A.
 Alpha  occ. eigenvalues --  -24.66167 -19.13836 -10.25336 -10.23582  -1.17854
 Alpha  occ. eigenvalues --   -1.02045  -0.74494  -0.61778  -0.52746  -0.49669
 Alpha  occ. eigenvalues --   -0.46693  -0.44599  -0.42274  -0.35503  -0.32728
 Alpha  occ. eigenvalues --   -0.32086  -0.26809
 Alpha virt. eigenvalues --    0.06159   0.10964   0.12482   0.13267   0.16453
 Alpha virt. eigenvalues --    0.21246   0.22510   0.25421   0.42328   0.47675
 Alpha virt. eigenvalues --    0.49288   0.50298   0.53227   0.60937   0.65544

 Mulliken charges:
               1
     1  C   -0.096953
     2  H    0.091429
     3  H    0.092199
     4  C   -0.046599
     5  H    0.102016
     6  H    0.101898
     7  F   -0.135983
     8  O   -0.398695
     9  H    0.290690
 Sum of Mulliken charges =  -0.00000

 Dipole moment (field-independent basis, Debye):
    X=              1.5666    Y=              2.4064    Z=             -0.0117  Tot=              2.8714
 Quadrupole moment (field-independent basis, Debye-Ang):
   XX=            -19.7938   YY=            -24.2897   ZZ=            -23.2734
   XY=             -1.3173   XZ=             -0.3359   YZ=              0.0780

  Exact polarizability:      30.941      -1.285      28.349      -0.219      -0.227      25.922
 Approx polarizability:      37.779      -0.289      39.980       0.143      -0.240      35.135

 ******    1 imaginary frequencies (negative Signs) ******

                      1                      2                      3
                      A                      A                      A
 Frequencies --   -158.9314               236.2399               286.5583
 Red. masses --      2.0417                 1.0884                 8.1528
 Frc consts  --      0.0304                 0.0358                 0.3944
 IR Inten    --      0.3642               118.2069                 0.8760

                      4                      5                      6
                      A                      A                      A
 Frequencies --    584.1567               862.7923               905.5445
 Red. masses --      3.9818                 1.2966                 3.1066
 Frc consts  --      0.8006                 0.5687                 1.5009
 IR Inten    --     24.2409                 8.9518                 8.3072

                      7                      8                      9
                      A                      A                      A
 Frequencies --   1104.2057              1117.9940              1169.0816
 Red. masses --      4.2062                 4.3954                 1.8347
 Frc consts  --      3.0216                 3.2369                 1.4775
 IR Inten    --     13.3291               147.6424                18.3194

                     10                     11                     12
                      A                      A                      A
 Frequencies --   1225.6430              1283.1436              1300.3890
 Red. masses --      1.1149                 1.1144                 1.1142
 Frc consts  --      0.9867                 1.0811                 1.1101
 IR Inten    --     14.2103                 7.5488                 9.5992

                     13                     14                     15
                      A                      A                      A
 Frequencies --   1433.8578              1470.3411              1514.9300
 Red. masses --      1.2627                 1.4215                 1.0858
 Frc consts  --      1.5295                 1.8106                 1.4682
 IR Inten    --     15.3595                 0.4818                 1.6277

                     16                     17                     18
                      A                      A                      A
 Frequencies --   1530.2327              2963.8899              2990.8292
 Red. masses --      1.0785                 1.0590                 1.1007
 Frc consts  --      1.4879                 5.4813                 5.8008
 IR Inten    --      1.4672                57.2275                34.9168

                     19                     20                     21
                      A                      A                      A
 Frequencies --   3020.8584              3064.4419              3834.3513
 Red. masses --      1.0580                 1.1087                 1.0664
 Frc consts  --      5.6883                 6.1346                 9.2377
 IR Inten    --     59.9145                62.4744                24.1680

 - Thermochemistry -
 -------------------
 Temperature   298.150 Kelvin.  Pressure   1.00000 Atm.
 Atom     1 has atomic number  6 and mass  12.00000

 Molecular mass:    64.03244 amu.
 Principal axes and moments of inertia in atomic units:
                           1         2         3
     Eigenvalues --   121.29001 298.68747 393.95919
           X            0.99914  -0.04029  -0.00992
           Y            0.04026   0.99919  -0.00278
           Z            0.01003   0.00237   0.99995
 This molecule is an asymmetric top.
 Rotational symmetry number  1.
 Rotational temperatures (Kelvin)      0.71411     0.28998     0.21986
 Rotational constants (GHZ):          14.87955     6.04224     4.58104
    1 imaginary frequencies ignored.
 Zero-point vibrational energy     190801.3 (Joules/Mol)
                                   45.60260 (Kcal/Mol)
 Warning -- explicit consideration of   3 degrees of freedom as
           vibrations may cause significant error
 Vibrational temperatures:    339.90   412.29   840.47  1241.37  1302.88
          (Kelvin)           1588.71  1608.54  1682.05  1763.43  1846.16
                             1870.97  2063.00  2115.49  2179.65  2201.66
                             4264.38  4303.14  4346.34  4409.05  5516.78

 Zero-point correction=                           0.072672 (Hartree/Particle)
 Thermal correction to Energy=                    0.076858
 Thermal correction to Enthalpy=                  0.077802
 Thermal correction to Gibbs Free Energy=         0.045982
 Sum of electronic and zero-point Energies=           -254.199675
 Sum of electronic and thermal Energies=              -254.195489
 Sum of electronic and thermal Enthalpies=            -254.194545
 Sum of electronic and thermal Free Energies=         -254.226365

                     E (Thermal)             CV                S
                      KCal/Mol        Cal/Mol-Kelvin    Cal/Mol-Kelvin
 Total                   48.229             13.133             66.972
 Electronic               0.000              0.000              0.000
 Translational            0.889              2.981             38.389
 Rotational               0.889              2.981             24.171
 Vibrational             46.452              7.172              4.412
 Vibration     1          0.655              1.785              1.831
 Vibration     2          0.684              1.699              1.494
 Vibration     3          0.941              1.066              0.478

 Normal termination of Gaussian 16 at Thu Dec  5 18:22:50 2024.
