 Gaussian 16, Revision C.01,
 Gaussian 16:  ES64L-G16RevC.01  3-Jul-2019

 -------------------------
 # freq b3lyp/6-31g(2df,p)
 -------------------------

 -------------------------------------------------------------------
 energy: -15.614184499692 gnorm: 0.000439253721 xtb: 6.6.1 (8d0f1dd)
 -------------------------------------------------------------------
 Symbolic Z-matrix:
 Charge =  0 Multiplicity = 1

                         Standard orientation:
 ---------------------------------------------------------------------
 Center     Atomic      Atomic             Coordinates (Angstroms)
 Number     Number       Type             X           Y           Z
 ---------------------------------------------------------------------
      1          6           0        0.603283    0.476664    0.277021
      2          1           0        0.343605    1.351538   -0.336667
      3          1           0        0.889538    0.836919    1.276302
      4          6           0       -0.648999   -0.403530    0.357599
      5          1           0       -0.994776   -0.526542    1.390048
      6          1           0       -0.409093   -1.387765   -0.059627
      7          9           0       -1.682381    0.154489   -0.367505
      8          8           0        1.644368   -0.294801   -0.301693
      9          1           0        2.431512    0.255052   -0.356685
 ---------------------------------------------------------------------

 SCF Done:  E(RB3LYP) =  -254.276821931     A.U. after   11 cycles

 The electronic state is 1-A.
 Alpha  occ. eigenvalues --  -24.66356 -19.14191 -10.25120 -10.23470  -1.17853
 Alpha  occ. eigenvalues --   -1.02294  -0.74556  -0.62100  -0.53017  -0.49711
 Alpha  occ. eigenvalues --   -0.45658  -0.45346  -0.42320  -0.36396  -0.32892
 Alpha  occ. eigenvalues --   -0.32076  -0.27428
 Alpha virt. eigenvalues --    0.06819   0.10077   0.13535   0.14516   0.16141
 Alpha virt. eigenvalues --    0.19812   0.22647   0.23972   0.42614   0.46558
 Alpha virt. eigenvalues --    0.49032   0.50678   0.56539   0.63278   0.68223

 Mulliken charges:
               1
     1  C   -0.087695
     2  H    0.108251
     3  H    0.091789
     4  C   -0.044356
     5  H    0.100861
     6  H    0.121969
     7  F   -0.161195
     8  O   -0.419110
     9  H    0.289487
 Sum of Mulliken charges =  -0.00000

 Dipole moment (field-independent basis, Debye):
    X=              1.5557    Y=              0.8397    Z=              1.1415  Tot=              2.1044
 Quadrupole moment (field-independent basis, Debye-Ang):
   XX=            -23.1039   YY=            -23.0213   ZZ=            -23.3532
   XY=              3.4495   XZ=             -1.1179   YZ=             -0.4142

  Exact polarizability:      31.551       0.871      27.239      -1.122       0.184      26.217
 Approx polarizability:      39.570      -0.585      37.316      -0.505       0.378      35.827

 ******    1 imaginary frequencies (negative Signs) ******

                      1                      2                      3
                      A                      A                      A
 Frequencies --   -140.3231               266.3614               409.3684
 Red. masses --      2.7979                 1.1069                 2.7641
 Frc consts  --      0.0325                 0.0463                 0.2729
 IR Inten    --      2.9971               115.8082                15.4111

                      4                      5                      6
                      A                      A                      A
 Frequencies --    423.3893               853.6775              1006.0783
 Red. masses --      4.2821                 1.6872                 2.4988
 Frc consts  --      0.4523                 0.7244                 1.4902
 IR Inten    --      3.1898                10.2837                56.4942

                      7                      8                      9
                      A                      A                      A
 Frequencies --   1031.8228              1109.7608              1134.2543
 Red. masses --      3.2254                 3.6238                 2.2550
 Frc consts  --      2.0232                 2.6295                 1.7093
 IR Inten    --     65.7615                20.2056                24.7798

                     10                     11                     12
                      A                      A                      A
 Frequencies --   1243.9930              1267.9314              1281.4535
 Red. masses --      1.1290                 1.1254                 1.0965
 Frc consts  --      1.0294                 1.0660                 1.0609
 IR Inten    --     19.9123                42.0893                 7.8726

                     13                     14                     15
                      A                      A                      A
 Frequencies --   1403.0598              1465.3229              1503.7543
 Red. masses --      1.2568                 1.4357                 1.0868
 Frc consts  --      1.4577                 1.8162                 1.4480
 IR Inten    --      7.5973                 3.7396                 0.5676

                     16                     17                     18
                      A                      A                      A
 Frequencies --   1516.6994              2982.7350              3019.4152
 Red. masses --      1.0834                 1.0575                 1.0976
 Frc consts  --      1.4684                 5.5433                 5.8960
 IR Inten    --      7.4097                46.9736                21.9095

                     19                     20                     21
                      A                      A                      A
 Frequencies --   3038.2528              3088.4588              3829.8139
 Red. masses --      1.0630                 1.1089                 1.0662
 Frc consts  --      5.7811                 6.2319                 9.2143
 IR Inten    --     52.4082                37.5156                21.7998

 - Thermochemistry -
 -------------------
 Temperature   298.150 Kelvin.  Pressure   1.00000 Atm.
 Atom     1 has atomic number  6 and mass  12.00000

 Molecular mass:    64.03244 amu.
 Principal axes and moments of inertia in atomic units:
                           1         2         3
     Eigenvalues --    76.64209 444.82386 448.65622
           X            0.99940   0.02905  -0.01910
           Y           -0.03082   0.99450  -0.10014
           Z            0.01608   0.10067   0.99479
 This molecule is an asymmetric top.
 Rotational symmetry number  1.
 Rotational temperatures (Kelvin)      1.13011     0.19472     0.19305
 Rotational constants (GHZ):          23.54765     4.05720     4.02255
    1 imaginary frequencies ignored.
 Zero-point vibrational energy     190658.4 (Joules/Mol)
                                   45.56846 (Kcal/Mol)
 Warning -- explicit consideration of   3 degrees of freedom as
           vibrations may cause significant error
 Vibrational temperatures:    383.23   588.99   609.16  1228.25  1447.52
          (Kelvin)           1484.56  1596.70  1631.94  1789.83  1824.27
                             1843.73  2018.69  2108.27  2163.57  2182.19
                             4291.49  4344.27  4371.37  4443.60  5510.25

 Zero-point correction=                           0.072618 (Hartree/Particle)
 Thermal correction to Energy=                    0.076742
 Thermal correction to Enthalpy=                  0.077686
 Thermal correction to Gibbs Free Energy=         0.046012
 Sum of electronic and zero-point Energies=           -254.204204
 Sum of electronic and thermal Energies=              -254.200080
 Sum of electronic and thermal Enthalpies=            -254.199136
 Sum of electronic and thermal Free Energies=         -254.230810

                     E (Thermal)             CV                S
                      KCal/Mol        Cal/Mol-Kelvin    Cal/Mol-Kelvin
 Total                   48.156             13.204             66.663
 Electronic               0.000              0.000              0.000
 Translational            0.889              2.981             38.389
 Rotational               0.889              2.981             24.240
 Vibrational             46.379              7.243              4.034
 Vibration     1          0.672              1.735              1.620
 Vibration     2          0.774              1.450              0.929
 Vibration     3          0.786              1.419              0.881

 Normal termination of Gaussian 16 at Thu Dec  5 18:23:58 2024.
