 Gaussian 16, Revision C.01,
 Gaussian 16:  ES64L-G16RevC.01  3-Jul-2019

 -------------------------
 # freq b3lyp/6-31g(2df,p)
 -------------------------

 -------------------------------------------------------------------
 energy: -15.614184499692 gnorm: 0.000439253721 xtb: 6.6.1 (8d0f1dd)
 -------------------------------------------------------------------
 Symbolic Z-matrix:
 Charge =  0 Multiplicity = 1

                         Standard orientation:
 ---------------------------------------------------------------------
 Center     Atomic      Atomic             Coordinates (Angstroms)
 Number     Number       Type             X           Y           Z
 ---------------------------------------------------------------------
      1          6           0       -0.715241    0.637928   -0.137483
      2          1           0       -1.153330    1.425264    0.496050
      3          1           0       -0.883020    0.931742   -1.186547
      4          6           0        0.792733    0.578963    0.143695
      5          1           0        0.989231    0.802704    1.200310
      6          1           0        1.322416    1.317118   -0.471111
      7          9           0        1.288542   -0.675841   -0.104650
      8          8           0       -1.264830   -0.640091    0.107620
      9          1           0       -2.218494   -0.574877    0.004912
 ---------------------------------------------------------------------

 SCF Done:  E(RB3LYP) =  -254.274719403     A.U. after   12 cycles

 The electronic state is 1-A.
 Alpha  occ. eigenvalues --  -24.66161 -19.13865 -10.25308 -10.23577  -1.17832
 Alpha  occ. eigenvalues --   -1.02088  -0.74681  -0.61761  -0.52867  -0.49679
 Alpha  occ. eigenvalues --   -0.46616  -0.44645  -0.42275  -0.35733  -0.32728
 Alpha  occ. eigenvalues --   -0.32005  -0.26982
 Alpha virt. eigenvalues --    0.06408   0.11026   0.12647   0.13738   0.16421
 Alpha virt. eigenvalues --    0.20370   0.22453   0.24519   0.42656   0.47609
 Alpha virt. eigenvalues --    0.49097   0.50375   0.54059   0.60453   0.65520

 Mulliken charges:
               1
     1  C   -0.094773
     2  H    0.091420
     3  H    0.091802
     4  C   -0.043746
     5  H    0.102303
     6  H    0.101058
     7  F   -0.139202
     8  O   -0.399868
     9  H    0.291005
 Sum of Mulliken charges =  -0.00000

 Dipole moment (field-independent basis, Debye):
    X=             -1.5805    Y=              2.3847    Z=             -0.0717  Tot=              2.8618
 Quadrupole moment (field-independent basis, Debye-Ang):
   XX=            -19.8606   YY=            -24.2428   ZZ=            -23.3126
   XY=              1.2826   XZ=              0.6601   YZ=              0.1377

  Exact polarizability:      30.994       1.305      28.413       0.367      -0.291      26.068
 Approx polarizability:      38.002       0.322      40.044      -0.109      -0.339      35.356

 ******    1 imaginary frequencies (negative Signs) ******

                      1                      2                      3
                      A                      A                      A
 Frequencies --    -68.0095               234.1322               286.3004
 Red. masses --      2.1892                 1.0847                 6.4865
 Frc consts  --      0.0060                 0.0350                 0.3133
 IR Inten    --      1.5708               116.3897                 0.9678

                      4                      5                      6
                      A                      A                      A
 Frequencies --    564.1015               866.9113               905.3055
 Red. masses --      3.2560                 1.4252                 2.8362
 Frc consts  --      0.6104                 0.6311                 1.3696
 IR Inten    --     21.2783                14.5402                11.0259

                      7                      8                      9
                      A                      A                      A
 Frequencies --   1100.8631              1115.3919              1169.3742
 Red. masses --      3.7001                 3.8973                 1.9990
 Frc consts  --      2.6420                 2.8567                 1.6105
 IR Inten    --     25.0946               121.7927                24.3166

                     10                     11                     12
                      A                      A                      A
 Frequencies --   1219.0703              1282.1955              1309.4616
 Red. masses --      1.1151                 1.1293                 1.1204
 Frc consts  --      0.9764                 1.0939                 1.1319
 IR Inten    --     19.2885                 4.2723                15.4830

                     13                     14                     15
                      A                      A                      A
 Frequencies --   1433.4146              1471.4412              1511.0092
 Red. masses --      1.2652                 1.4488                 1.0859
 Frc consts  --      1.5316                 1.8482                 1.4607
 IR Inten    --     15.0534                 0.4153                 2.5226

                     16                     17                     18
                      A                      A                      A
 Frequencies --   1523.8502              2962.7262              2990.6038
 Red. masses --      1.0805                 1.0584                 1.1000
 Frc consts  --      1.4783                 5.4737                 5.7962
 IR Inten    --      1.8401                55.4267                33.7751

                     19                     20                     21
                      A                      A                      A
 Frequencies --   3019.9916              3064.3519              3835.5915
 Red. masses --      1.0588                 1.1085                 1.0665
 Frc consts  --      5.6893                 6.1329                 9.2440
 IR Inten    --     61.7615                59.5141                24.6676

 - Thermochemistry -
 -------------------
 Temperature   298.150 Kelvin.  Pressure   1.00000 Atm.
 Atom     1 has atomic number  6 and mass  12.00000

 Molecular mass:    64.03244 amu.
 Principal axes and moments of inertia in atomic units:
                           1         2         3
     Eigenvalues --   119.92998 302.72743 392.71312
           X            0.99914   0.03877   0.01495
           Y           -0.03872   0.99924  -0.00351
           Z           -0.01507   0.00293   0.99988
 This molecule is an asymmetric top.
 Rotational symmetry number  1.
 Rotational temperatures (Kelvin)      0.72220     0.28611     0.22055
 Rotational constants (GHZ):          15.04829     5.96160     4.59557
    1 imaginary frequencies ignored.
 Zero-point vibrational energy     190601.5 (Joules/Mol)
                                   45.55486 (Kcal/Mol)
 Warning -- explicit consideration of   3 degrees of freedom as
           vibrations may cause significant error
 Vibrational temperatures:    336.86   411.92   811.62  1247.29  1302.53
          (Kelvin)           1583.90  1604.80  1682.47  1753.97  1844.79
                             1884.02  2062.36  2117.08  2174.01  2192.48
                             4262.70  4302.81  4345.09  4408.92  5518.56

 Zero-point correction=                           0.072596 (Hartree/Particle)
 Thermal correction to Energy=                    0.076797
 Thermal correction to Enthalpy=                  0.077741
 Thermal correction to Gibbs Free Energy=         0.045895
 Sum of electronic and zero-point Energies=           -254.202123
 Sum of electronic and thermal Energies=              -254.197922
 Sum of electronic and thermal Enthalpies=            -254.196978
 Sum of electronic and thermal Free Energies=         -254.228824

                     E (Thermal)             CV                S
                      KCal/Mol        Cal/Mol-Kelvin    Cal/Mol-Kelvin
 Total                   48.191             13.182             67.026
 Electronic               0.000              0.000              0.000
 Translational            0.889              2.981             38.389
 Rotational               0.889              2.981             24.170
 Vibrational             46.414              7.221              4.467
 Vibration     1          0.654              1.789              1.847
 Vibration     2          0.684              1.699              1.496
 Vibration     3          0.920              1.109              0.516

 Normal termination of Gaussian 16 at Thu Dec  5 18:22:44 2024.
