 Gaussian 16, Revision C.01,
 Gaussian 16:  ES64L-G16RevC.01  3-Jul-2019

 -------------------------
 # freq b3lyp/6-31g(2df,p)
 -------------------------

 -------------------------------------------------------------------
 energy: -15.614184499692 gnorm: 0.000439253721 xtb: 6.6.1 (8d0f1dd)
 -------------------------------------------------------------------
 Symbolic Z-matrix:
 Charge =  0 Multiplicity = 1

                         Standard orientation:
 ---------------------------------------------------------------------
 Center     Atomic      Atomic             Coordinates (Angstroms)
 Number     Number       Type             X           Y           Z
 ---------------------------------------------------------------------
      1          6           0        0.647785    0.510260   -0.328904
      2          1           0        0.503110    0.371440   -1.410503
      3          1           0        1.079859    1.512848   -0.171696
      4          6           0       -0.709684    0.465071    0.342162
      5          1           0       -1.232351    1.418348    0.191546
      6          1           0       -0.585081    0.288500    1.417206
      7          9           0       -1.484903   -0.541923   -0.191629
      8          8           0        1.464061   -0.497559    0.239346
      9          1           0        2.257504   -0.585349   -0.296207
 ---------------------------------------------------------------------

 SCF Done:  E(RB3LYP) =  -254.280795182     A.U. after   12 cycles

 The electronic state is 1-A.
 Alpha  occ. eigenvalues --  -24.66192 -19.14010 -10.25169 -10.23533  -1.17742
 Alpha  occ. eigenvalues --   -1.02209  -0.75078  -0.61874  -0.53198  -0.49760
 Alpha  occ. eigenvalues --   -0.45774  -0.45211  -0.42264  -0.36377  -0.33027
 Alpha  occ. eigenvalues --   -0.31940  -0.27475
 Alpha virt. eigenvalues --    0.07228   0.11362   0.12584   0.15299   0.16913
 Alpha virt. eigenvalues --    0.18270   0.21015   0.22559   0.44402   0.45646
 Alpha virt. eigenvalues --    0.49620   0.50511   0.57675   0.60740   0.66279

 Mulliken charges:
               1
     1  C   -0.080944
     2  H    0.103341
     3  H    0.086302
     4  C   -0.035378
     5  H    0.095645
     6  H    0.114535
     7  F   -0.158785
     8  O   -0.415258
     9  H    0.290542
 Sum of Mulliken charges =  -0.00000

 Dipole moment (field-independent basis, Debye):
    X=              1.4633    Y=              1.7344    Z=             -0.6972  Tot=              2.3739
 Quadrupole moment (field-independent basis, Debye-Ang):
   XX=            -22.0362   YY=            -23.7088   ZZ=            -22.9180
   XY=             -1.5033   XZ=             -3.0828   YZ=              0.5666

  Exact polarizability:      30.974      -1.611      27.810      -1.065      -0.180      26.924
 Approx polarizability:      38.500      -1.058      38.482      -0.155      -0.345      37.020

                      1                      2                      3
                      A                      A                      A
 Frequencies --    129.0432               227.4568               337.3212
 Red. masses --      3.6914                 1.0962                 2.6566
 Frc consts  --      0.0362                 0.0334                 0.1781
 IR Inten    --      2.0094               113.0112                 4.3389

                      4                      5                      6
                      A                      A                      A
 Frequencies --    483.0139               877.8535               926.4714
 Red. masses --      2.3160                 2.5106                 2.0247
 Frc consts  --      0.3184                 1.1399                 1.0239
 IR Inten    --     15.7481                16.0385                47.6669

                      7                      8                      9
                      A                      A                      A
 Frequencies --   1074.4744              1110.6824              1123.0577
 Red. masses --      2.0448                 3.5185                 2.8646
 Frc consts  --      1.3909                 2.5573                 2.1287
 IR Inten    --     47.1238                37.1564                40.0466

                     10                     11                     12
                      A                      A                      A
 Frequencies --   1240.6308              1276.2132              1314.0082
 Red. masses --      1.1646                 1.1250                 1.0990
 Frc consts  --      1.0561                 1.0795                 1.1180
 IR Inten    --     13.1900                36.5178                17.7535

                     13                     14                     15
                      A                      A                      A
 Frequencies --   1419.2238              1466.5145              1500.1827
 Red. masses --      1.2669                 1.5251                 1.0904
 Frc consts  --      1.5034                 1.9325                 1.4458
 IR Inten    --     10.5808                 3.8839                 6.4110

                     16                     17                     18
                      A                      A                      A
 Frequencies --   1505.0818              2963.5355              3013.8046
 Red. masses --      1.1009                 1.0629                 1.0887
 Frc consts  --      1.4693                 5.4998                 5.8264
 IR Inten    --      4.0828                49.3381                22.3051

                     19                     20                     21
                      A                      A                      A
 Frequencies --   3027.2452              3077.5584              3836.3726
 Red. masses --      1.0657                 1.1070                 1.0664
 Frc consts  --      5.7544                 6.1775                 9.2474
 IR Inten    --     61.5009                40.5994                23.6016

 - Thermochemistry -
 -------------------
 Temperature   298.150 Kelvin.  Pressure   1.00000 Atm.
 Atom     1 has atomic number  6 and mass  12.00000

 Molecular mass:    64.03244 amu.
 Principal axes and moments of inertia in atomic units:
                           1         2         3
     Eigenvalues --   101.12870 371.60711 412.70623
           X            0.99909  -0.02660  -0.03327
           Y            0.02670   0.99964   0.00247
           Z            0.03320  -0.00336   0.99944
 This molecule is an asymmetric top.
 Rotational symmetry number  1.
 Rotational temperatures (Kelvin)      0.85647     0.23308     0.20987
 Rotational constants (GHZ):          17.84598     4.85658     4.37294
 Zero-point vibrational energy     190982.3 (Joules/Mol)
                                   45.64586 (Kcal/Mol)
 Warning -- explicit consideration of   4 degrees of freedom as
           vibrations may cause significant error
 Vibrational temperatures:    185.66   327.26   485.33   694.95  1263.04
          (Kelvin)           1332.99  1545.93  1598.02  1615.83  1784.99
                             1836.19  1890.56  2041.95  2109.99  2158.43
                             2165.48  4263.87  4336.19  4355.53  4427.92
                             5519.68

 Zero-point correction=                           0.072741 (Hartree/Particle)
 Thermal correction to Energy=                    0.077627
 Thermal correction to Enthalpy=                  0.078571
 Thermal correction to Gibbs Free Energy=         0.045294
 Sum of electronic and zero-point Energies=           -254.208054
 Sum of electronic and thermal Energies=              -254.203168
 Sum of electronic and thermal Enthalpies=            -254.202224
 Sum of electronic and thermal Free Energies=         -254.235501

                     E (Thermal)             CV                S
                      KCal/Mol        Cal/Mol-Kelvin    Cal/Mol-Kelvin
 Total                   48.712             15.218             70.037
 Electronic               0.000              0.000              0.000
 Translational            0.889              2.981             38.389
 Rotational               0.889              2.981             24.254
 Vibrational             46.934              9.256              7.394
 Vibration     1          0.612              1.924              2.960
 Vibration     2          0.651              1.799              1.899
 Vibration     3          0.718              1.601              1.225
 Vibration     4          0.839              1.288              0.702

 Normal termination of Gaussian 16 at Thu Dec  5 18:22:49 2024.
