 Gaussian 16, Revision C.01,
 Gaussian 16:  ES64L-G16RevC.01  3-Jul-2019

 -------------------------
 # freq b3lyp/6-31g(2df,p)
 -------------------------

 -------------------------------------------------------------------
 energy: -15.614184499692 gnorm: 0.000439253721 xtb: 6.6.1 (8d0f1dd)
 -------------------------------------------------------------------
 Symbolic Z-matrix:
 Charge =  0 Multiplicity = 1

                         Standard orientation:
 ---------------------------------------------------------------------
 Center     Atomic      Atomic             Coordinates (Angstroms)
 Number     Number       Type             X           Y           Z
 ---------------------------------------------------------------------
      1          6           0       -0.736776    0.659230    0.000301
      2          1           0       -1.075924    1.218266    0.886249
      3          1           0       -1.076572    1.219515   -0.884485
      4          6           0        0.816332    0.596339   -0.000371
      5          1           0        1.218898    1.099629    0.886869
      6          1           0        1.218801    1.098833   -0.888249
      7          9           0        1.263925   -0.698544    0.000286
      8          8           0       -1.242012   -0.660178   -0.000364
      9          1           0       -2.201767   -0.601338    0.000366
 ---------------------------------------------------------------------

 SCF Done:  E(RB3LYP) =  -254.269957021     A.U. after   12 cycles

 The electronic state is 1-A.
 Alpha  occ. eigenvalues --  -24.66167 -19.13800 -10.25354 -10.23582  -1.17873
 Alpha  occ. eigenvalues --   -1.02000  -0.74295  -0.61795  -0.52623  -0.49677
 Alpha  occ. eigenvalues --   -0.46735  -0.44540  -0.42296  -0.35276  -0.32784
 Alpha  occ. eigenvalues --   -0.32085  -0.26653
 Alpha virt. eigenvalues --    0.05910   0.10917   0.12313   0.12920   0.16491
 Alpha virt. eigenvalues --    0.22208   0.22437   0.26333   0.41997   0.47744
 Alpha virt. eigenvalues --    0.49697   0.50025   0.52464   0.61611   0.65579

 Mulliken charges:
               1
     1  C   -0.099033
     2  H    0.092058
     3  H    0.092076
     4  C   -0.049170
     5  H    0.102394
     6  H    0.102401
     7  F   -0.133177
     8  O   -0.397911
     9  H    0.290363
 Sum of Mulliken charges =  -0.00000

 Dipole moment (field-independent basis, Debye):
    X=             -1.5498    Y=              2.4118    Z=              0.0010  Tot=              2.8668
 Quadrupole moment (field-independent basis, Debye-Ang):
   XX=            -19.7699   YY=            -24.3290   ZZ=            -23.2155
   XY=              1.3693   XZ=             -0.0038   YZ=             -0.0011

  Exact polarizability:      30.864       1.265      28.246      -0.004       0.000      25.786
 Approx polarizability:      37.521       0.265      39.830      -0.004       0.001      34.944

 ******    1 imaginary frequencies (negative Signs) ******

                      1                      2                      3
                      A                      A                      A
 Frequencies --   -219.1450               240.1037               287.9286
 Red. masses --      1.9621                 1.0920                 9.4591
 Frc consts  --      0.0555                 0.0371                 0.4620
 IR Inten    --      0.0370               119.6065                 0.9532

                      4                      5                      6
                      A                      A                      A
 Frequencies --    604.8983               859.8354               903.8317
 Red. masses --      5.4602                 1.1652                 3.5087
 Frc consts  --      1.1771                 0.5076                 1.6888
 IR Inten    --     28.2457                 2.3852                 5.6195

                      7                      8                      9
                      A                      A                      A
 Frequencies --   1108.6371              1122.0307              1165.8646
 Red. masses --      5.3823                 5.0971                 1.6663
 Frc consts  --      3.8976                 3.7808                 1.3344
 IR Inten    --      8.3610               175.4319                 0.0163

                     10                     11                     12
                      A                      A                      A
 Frequencies --   1253.9066              1259.8910              1293.8363
 Red. masses --      1.1472                 1.0635                 1.0940
 Frc consts  --      1.0627                 0.9946                 1.0790
 IR Inten    --     25.9114                 0.0162                 0.8977

                     13                     14                     15
                      A                      A                      A
 Frequencies --   1433.1887              1468.6547              1518.1044
 Red. masses --      1.2614                 1.4028                 1.0865
 Frc consts  --      1.5266                 1.7828                 1.4754
 IR Inten    --     15.3561                 0.9481                 0.8794

                     16                     17                     18
                      A                      A                      A
 Frequencies --   1536.9179              2967.9187              2989.7994
 Red. masses --      1.0771                 1.0548                 1.1073
 Frc consts  --      1.4990                 5.4741                 5.8317
 IR Inten    --      1.2058                56.4153                41.1204

                     19                     20                     21
                      A                      A                      A
 Frequencies --   3023.3966              3065.8578              3833.2061
 Red. masses --      1.0559                 1.1098                 1.0664
 Frc consts  --      5.6866                 6.1463                 9.2318
 IR Inten    --     53.0678                66.8117                23.6061

 - Thermochemistry -
 -------------------
 Temperature   298.150 Kelvin.  Pressure   1.00000 Atm.
 Atom     1 has atomic number  6 and mass  12.00000

 Molecular mass:    64.03244 amu.
 Principal axes and moments of inertia in atomic units:
                           1         2         3
     Eigenvalues --   122.33645 295.84395 395.55502
           X            0.99913   0.04166  -0.00005
           Y           -0.04166   0.99913   0.00000
           Z            0.00005  -0.00000   1.00000
 This molecule is an asymmetric top.
 Rotational symmetry number  1.
 Rotational temperatures (Kelvin)      0.70800     0.29277     0.21897
 Rotational constants (GHZ):          14.75228     6.10031     4.56255
    1 imaginary frequencies ignored.
 Zero-point vibrational energy     191030.5 (Joules/Mol)
                                   45.65739 (Kcal/Mol)
 Warning -- explicit consideration of   3 degrees of freedom as
           vibrations may cause significant error
 Vibrational temperatures:    345.46   414.27   870.31  1237.11  1300.41
          (Kelvin)           1595.08  1614.35  1677.42  1804.09  1812.70
                             1861.54  2062.04  2113.07  2184.21  2211.28
                             4270.17  4301.65  4349.99  4411.09  5515.13

 Zero-point correction=                           0.072760 (Hartree/Particle)
 Thermal correction to Energy=                    0.076927
 Thermal correction to Enthalpy=                  0.077871
 Thermal correction to Gibbs Free Energy=         0.046083
 Sum of electronic and zero-point Energies=           -254.197197
 Sum of electronic and thermal Energies=              -254.193030
 Sum of electronic and thermal Enthalpies=            -254.192086
 Sum of electronic and thermal Free Energies=         -254.223874

                     E (Thermal)             CV                S
                      KCal/Mol        Cal/Mol-Kelvin    Cal/Mol-Kelvin
 Total                   48.272             13.080             66.903
 Electronic               0.000              0.000              0.000
 Translational            0.889              2.981             38.389
 Rotational               0.889              2.981             24.174
 Vibrational             46.495              7.118              4.339
 Vibration     1          0.657              1.779              1.802
 Vibration     2          0.685              1.696              1.486
 Vibration     3          0.963              1.021              0.441

 Optimization completed.
    -- Stationary point found.
 Normal termination of Gaussian 16 at Thu Dec  5 18:22:44 2024.
