 Gaussian 16, Revision C.01,
 Gaussian 16:  ES64L-G16RevC.01  3-Jul-2019

 -------------------------
 # freq b3lyp/6-31g(2df,p)
 -------------------------

 -------------------------------------------------------------------
 energy: -15.614184499692 gnorm: 0.000439253721 xtb: 6.6.1 (8d0f1dd)
 -------------------------------------------------------------------
 Symbolic Z-matrix:
 Charge =  0 Multiplicity = 1

                         Standard orientation:
 ---------------------------------------------------------------------
 Center     Atomic      Atomic             Coordinates (Angstroms)
 Number     Number       Type             X           Y           Z
 ---------------------------------------------------------------------
      1          6           0       -0.603448    0.477364    0.275941
      2          1           0       -0.890141    0.839793    1.274386
      3          1           0       -0.344668    1.351474   -0.339225
      4          6           0        0.649114   -0.401467    0.359675
      5          1           0        0.409159   -1.387970   -0.052213
      6          1           0        0.995170   -0.519597    1.392664
      7          9           0        1.682372    0.152800   -0.368854
      8          8           0       -1.644171   -0.295965   -0.301373
      9          1           0       -2.431497    0.253436   -0.358643
 ---------------------------------------------------------------------

 SCF Done:  E(RB3LYP) =  -254.276825325     A.U. after   11 cycles

 The electronic state is 1-A.
 Alpha  occ. eigenvalues --  -24.66356 -19.14191 -10.25123 -10.23474  -1.17845
 Alpha  occ. eigenvalues --   -1.02288  -0.74568  -0.62098  -0.53018  -0.49709
 Alpha  occ. eigenvalues --   -0.45652  -0.45346  -0.42316  -0.36395  -0.32893
 Alpha  occ. eigenvalues --   -0.32083  -0.27427
 Alpha virt. eigenvalues --    0.06817   0.10069   0.13527   0.14508   0.16136
 Alpha virt. eigenvalues --    0.19823   0.22652   0.23968   0.42611   0.46545
 Alpha virt. eigenvalues --    0.49041   0.50682   0.56556   0.63266   0.68224

 Mulliken charges:
               1
     1  C   -0.087644
     2  H    0.091790
     3  H    0.108289
     4  C   -0.044337
     5  H    0.121998
     6  H    0.100885
     7  F   -0.161278
     8  O   -0.419216
     9  H    0.289513
 Sum of Mulliken charges =  -0.00000

 Dipole moment (field-independent basis, Debye):
    X=             -1.5565    Y=              0.8447    Z=              1.1411  Tot=              2.1068
 Quadrupole moment (field-independent basis, Debye-Ang):
   XX=            -23.1024   YY=            -23.0237   ZZ=            -23.3518
   XY=             -3.4429   XZ=              1.1339   YZ=             -0.4173

  Exact polarizability:      31.553      -0.865      27.239       1.129       0.181      26.221
 Approx polarizability:      39.571       0.587      37.318       0.505       0.374      35.833

 ******    1 imaginary frequencies (negative Signs) ******

                      1                      2                      3
                      A                      A                      A
 Frequencies --   -139.8285               266.3596               409.6432
 Red. masses --      2.7970                 1.1066                 2.7684
 Frc consts  --      0.0322                 0.0463                 0.2737
 IR Inten    --      3.0246               115.8125                15.3011

                      4                      5                      6
                      A                      A                      A
 Frequencies --    422.8471               853.8904              1006.4157
 Red. masses --      4.2606                 1.6922                 2.5056
 Frc consts  --      0.4488                 0.7269                 1.4953
 IR Inten    --      3.3000                10.3827                59.1594

                      7                      8                      9
                      A                      A                      A
 Frequencies --   1031.3709              1109.4458              1133.7332
 Red. masses --      3.2085                 3.6176                 2.2551
 Frc consts  --      2.0109                 2.6235                 1.7078
 IR Inten    --     62.9161                20.3576                24.6761

                     10                     11                     12
                      A                      A                      A
 Frequencies --   1243.7587              1268.1128              1281.5967
 Red. masses --      1.1289                 1.1254                 1.0965
 Frc consts  --      1.0289                 1.0663                 1.0611
 IR Inten    --     19.8827                42.3645                 7.6758

                     13                     14                     15
                      A                      A                      A
 Frequencies --   1403.2967              1465.5890              1503.7969
 Red. masses --      1.2567                 1.4364                 1.0867
 Frc consts  --      1.4581                 1.8178                 1.4478
 IR Inten    --      7.6150                 3.7230                 0.5729

                     16                     17                     18
                      A                      A                      A
 Frequencies --   1516.7134              2982.3678              3019.0657
 Red. masses --      1.0834                 1.0578                 1.0974
 Frc consts  --      1.4684                 5.5432                 5.8935
 IR Inten    --      7.4197                47.0466                21.8172

                     19                     20                     21
                      A                      A                      A
 Frequencies --   3037.9245              3087.9362              3829.5198
 Red. masses --      1.0630                 1.1088                 1.0663
 Frc consts  --      5.7800                 6.2294                 9.2129
 IR Inten    --     52.5338                37.4125                21.8308

 - Thermochemistry -
 -------------------
 Temperature   298.150 Kelvin.  Pressure   1.00000 Atm.
 Atom     1 has atomic number  6 and mass  12.00000

 Molecular mass:    64.03244 amu.
 Principal axes and moments of inertia in atomic units:
                           1         2         3
     Eigenvalues --    76.70320 444.91248 448.59774
           X            0.99940  -0.02880   0.01946
           Y            0.03073   0.99370  -0.10776
           Z           -0.01623   0.10830   0.99399
 This molecule is an asymmetric top.
 Rotational symmetry number  1.
 Rotational temperatures (Kelvin)      1.12921     0.19468     0.19308
 Rotational constants (GHZ):          23.52889     4.05640     4.02307
    1 imaginary frequencies ignored.
 Zero-point vibrational energy     190645.2 (Joules/Mol)
                                   45.56529 (Kcal/Mol)
 Warning -- explicit consideration of   3 degrees of freedom as
           vibrations may cause significant error
 Vibrational temperatures:    383.23   589.39   608.38  1228.56  1448.01
          (Kelvin)           1483.91  1596.25  1631.19  1789.49  1824.53
                             1843.93  2019.03  2108.66  2163.63  2182.21
                             4290.96  4343.76  4370.90  4442.85  5509.82

 Zero-point correction=                           0.072613 (Hartree/Particle)
 Thermal correction to Energy=                    0.076737
 Thermal correction to Enthalpy=                  0.077681
 Thermal correction to Gibbs Free Energy=         0.046007
 Sum of electronic and zero-point Energies=           -254.204212
 Sum of electronic and thermal Energies=              -254.200088
 Sum of electronic and thermal Enthalpies=            -254.199144
 Sum of electronic and thermal Free Energies=         -254.230819

                     E (Thermal)             CV                S
                      KCal/Mol        Cal/Mol-Kelvin    Cal/Mol-Kelvin
 Total                   48.153             13.205             66.665
 Electronic               0.000              0.000              0.000
 Translational            0.889              2.981             38.389
 Rotational               0.889              2.981             24.241
 Vibrational             46.376              7.243              4.035
 Vibration     1          0.672              1.735              1.620
 Vibration     2          0.774              1.449              0.928
 Vibration     3          0.785              1.421              0.882

 Normal termination of Gaussian 16 at Thu Dec  5 18:23:38 2024.
