 Gaussian 16, Revision C.01,
 Gaussian 16:  ES64L-G16RevC.01  3-Jul-2019

 -------------------------
 # freq b3lyp/6-31g(2df,p)
 -------------------------

 -------------------------------------------------------------------
 energy: -15.614184499692 gnorm: 0.000439253721 xtb: 6.6.1 (8d0f1dd)
 -------------------------------------------------------------------
 Symbolic Z-matrix:
 Charge =  0 Multiplicity = 1

                         Standard orientation:
 ---------------------------------------------------------------------
 Center     Atomic      Atomic             Coordinates (Angstroms)
 Number     Number       Type             X           Y           Z
 ---------------------------------------------------------------------
      1          6           0        0.714974    0.637732   -0.138132
      2          1           0        0.881077    0.930254   -1.187863
      3          1           0        1.153683    1.425940    0.493987
      4          6           0       -0.792676    0.578704    0.144462
      5          1           0       -1.322657    1.317442   -0.469416
      6          1           0       -0.988649    0.801536    1.201390
      7          9           0       -1.288321   -0.675727   -0.105116
      8          8           0        1.264897   -0.639690    0.108225
      9          1           0        2.218473   -0.574723    0.004170
 ---------------------------------------------------------------------

 SCF Done:  E(RB3LYP) =  -254.274758288     A.U. after   12 cycles

 The electronic state is 1-A.
 Alpha  occ. eigenvalues --  -24.66162 -19.13865 -10.25305 -10.23575  -1.17840
 Alpha  occ. eigenvalues --   -1.02093  -0.74679  -0.61760  -0.52871  -0.49682
 Alpha  occ. eigenvalues --   -0.46617  -0.44649  -0.42278  -0.35738  -0.32726
 Alpha  occ. eigenvalues --   -0.32000  -0.26984
 Alpha virt. eigenvalues --    0.06413   0.11029   0.12653   0.13749   0.16422
 Alpha virt. eigenvalues --    0.20360   0.22448   0.24514   0.42663   0.47609
 Alpha virt. eigenvalues --    0.49099   0.50379   0.54067   0.60454   0.65517

 Mulliken charges:
               1
     1  C   -0.094701
     2  H    0.091776
     3  H    0.091354
     4  C   -0.043789
     5  H    0.100984
     6  H    0.102282
     7  F   -0.139112
     8  O   -0.399814
     9  H    0.291020
 Sum of Mulliken charges =  -0.00000

 Dipole moment (field-independent basis, Debye):
    X=              1.5799    Y=              2.3827    Z=             -0.0735  Tot=              2.8599
 Quadrupole moment (field-independent basis, Debye-Ang):
   XX=            -19.8607   YY=            -24.2430   ZZ=            -23.3130
   XY=             -1.2827   XZ=             -0.6670   YZ=              0.1392

  Exact polarizability:      30.994      -1.307      28.411      -0.369      -0.292      26.073
 Approx polarizability:      38.004      -0.326      40.038       0.109      -0.342      35.364

 ******    1 imaginary frequencies (negative Signs) ******

                      1                      2                      3
                      A                      A                      A
 Frequencies --    -65.7450               235.6745               286.4047
 Red. masses --      2.1924                 1.0847                 6.4594
 Frc consts  --      0.0056                 0.0355                 0.3122
 IR Inten    --      1.5691               116.4012                 0.9760

                      4                      5                      6
                      A                      A                      A
 Frequencies --    563.9569               867.1035               905.3680
 Red. masses --      3.2484                 1.4278                 2.8277
 Frc consts  --      0.6087                 0.6325                 1.3657
 IR Inten    --     21.2284                14.5692                11.0263

                      7                      8                      9
                      A                      A                      A
 Frequencies --   1101.3827              1115.7612              1169.4963
 Red. masses --      3.6912                 3.8859                 2.0037
 Frc consts  --      2.6382                 2.8503                 1.6146
 IR Inten    --     25.4242               121.2467                24.5627

                     10                     11                     12
                      A                      A                      A
 Frequencies --   1219.2670              1282.2870              1309.5572
 Red. masses --      1.1154                 1.1295                 1.1202
 Frc consts  --      0.9770                 1.0943                 1.1318
 IR Inten    --     19.3271                 4.2257                15.6319

                     13                     14                     15
                      A                      A                      A
 Frequencies --   1433.4277              1471.5135              1511.0526
 Red. masses --      1.2656                 1.4492                 1.0860
 Frc consts  --      1.5321                 1.8489                 1.4609
 IR Inten    --     15.0563                 0.4157                 2.5522

                     16                     17                     18
                      A                      A                      A
 Frequencies --   1523.7872              2962.3229              2990.2145
 Red. masses --      1.0806                 1.0583                 1.1001
 Frc consts  --      1.4784                 5.4718                 5.7954
 IR Inten    --      1.8474                55.4200                34.0086

                     19                     20                     21
                      A                      A                      A
 Frequencies --   3019.8216              3064.1528              3835.0207
 Red. masses --      1.0587                 1.1085                 1.0665
 Frc consts  --      5.6884                 6.1321                 9.2413
 IR Inten    --     61.6514                59.5317                24.6683

 - Thermochemistry -
 -------------------
 Temperature   298.150 Kelvin.  Pressure   1.00000 Atm.
 Atom     1 has atomic number  6 and mass  12.00000

 Molecular mass:    64.03244 amu.
 Principal axes and moments of inertia in atomic units:
                           1         2         3
     Eigenvalues --   119.89805 302.70601 392.58366
           X            0.99913  -0.03878  -0.01503
           Y            0.03873   0.99924  -0.00353
           Z            0.01515   0.00294   0.99988
 This molecule is an asymmetric top.
 Rotational symmetry number  1.
 Rotational temperatures (Kelvin)      0.72240     0.28613     0.22063
 Rotational constants (GHZ):          15.05230     5.96203     4.59709
    1 imaginary frequencies ignored.
 Zero-point vibrational energy     190610.4 (Joules/Mol)
                                   45.55698 (Kcal/Mol)
 Warning -- explicit consideration of   3 degrees of freedom as
           vibrations may cause significant error
 Vibrational temperatures:    339.08   412.07   811.41  1247.57  1302.62
          (Kelvin)           1584.64  1605.33  1682.64  1754.25  1844.92
                             1884.16  2062.38  2117.18  2174.07  2192.39
                             4262.12  4302.25  4344.85  4408.63  5517.74

 Zero-point correction=                           0.072600 (Hartree/Particle)
 Thermal correction to Energy=                    0.076798
 Thermal correction to Enthalpy=                  0.077742
 Thermal correction to Gibbs Free Energy=         0.045902
 Sum of electronic and zero-point Energies=           -254.202159
 Sum of electronic and thermal Energies=              -254.197960
 Sum of electronic and thermal Enthalpies=            -254.197016
 Sum of electronic and thermal Free Energies=         -254.228856

                     E (Thermal)             CV                S
                      KCal/Mol        Cal/Mol-Kelvin    Cal/Mol-Kelvin
 Total                   48.192             13.178             67.013
 Electronic               0.000              0.000              0.000
 Translational            0.889              2.981             38.389
 Rotational               0.889              2.981             24.170
 Vibrational             46.414              7.217              4.454
 Vibration     1          0.655              1.786              1.835
 Vibration     2          0.684              1.699              1.495
 Vibration     3          0.920              1.109              0.516

 Normal termination of Gaussian 16 at Thu Dec  5 18:22:49 2024.
