 Gaussian 16, Revision C.01,
 Gaussian 16:  ES64L-G16RevC.01  3-Jul-2019

 -------------------------
 # freq b3lyp/6-31g(2df,p)
 -------------------------

 -------------------------------------------------------------------
 energy: -15.614184499692 gnorm: 0.000439253721 xtb: 6.6.1 (8d0f1dd)
 -------------------------------------------------------------------
 Symbolic Z-matrix:
 Charge =  0 Multiplicity = 1

                         Standard orientation:
 ---------------------------------------------------------------------
 Center     Atomic      Atomic             Coordinates (Angstroms)
 Number     Number       Type             X           Y           Z
 ---------------------------------------------------------------------
      1          6           0       -0.553599    0.499511    0.000416
      2          1           0       -0.467546    1.142848    0.889434
      3          1           0       -0.466664    1.143455   -0.888082
      4          6           0        0.594279   -0.499795    0.000443
      5          1           0        0.543245   -1.137333   -0.889961
      6          1           0        0.544168   -1.136605    0.891415
      7          9           0        1.788588    0.188029   -0.000455
      8          8           0       -1.750118   -0.256829   -0.000454
      9          1           0       -2.493637    0.351706   -0.000231
 ---------------------------------------------------------------------

 SCF Done:  E(RB3LYP) =  -254.280889338     A.U. after   12 cycles

 The electronic state is 1-A.
 Alpha  occ. eigenvalues --  -24.66800 -19.14493 -10.25138 -10.23454  -1.18274
 Alpha  occ. eigenvalues --   -1.02660  -0.74680  -0.62096  -0.52912  -0.50043
 Alpha  occ. eigenvalues --   -0.46501  -0.45440  -0.42264  -0.36545  -0.32942
 Alpha  occ. eigenvalues --   -0.32233  -0.27775
 Alpha virt. eigenvalues --    0.06149   0.10837   0.14475   0.14970   0.15693
 Alpha virt. eigenvalues --    0.20044   0.21676   0.24799   0.42998   0.46781
 Alpha virt. eigenvalues --    0.49814   0.51662   0.53599   0.62690   0.65662

 Mulliken charges:
               1
     1  C   -0.100453
     2  H    0.098837
     3  H    0.098853
     4  C   -0.042997
     5  H    0.111161
     6  H    0.111136
     7  F   -0.154722
     8  O   -0.416639
     9  H    0.294825
 Sum of Mulliken charges =  -0.00000

 Dipole moment (field-independent basis, Debye):
    X=             -1.5655    Y=              0.7764    Z=              0.0020  Tot=              1.7475
 Quadrupole moment (field-independent basis, Debye-Ang):
   XX=            -24.0013   YY=            -22.9294   ZZ=            -23.1045
   XY=             -4.0300   XZ=             -0.0000   YZ=             -0.0004

  Exact polarizability:      31.162      -0.621      27.932       0.001       0.001      25.817
 Approx polarizability:      39.549       1.391      37.949      -0.000       0.001      35.046

                      1                      2                      3
                      A                      A                      A
 Frequencies --    119.6319               217.8202               281.1429
 Red. masses --      3.3773                 1.0783                 3.8710
 Frc consts  --      0.0285                 0.0301                 0.1803
 IR Inten    --     21.2188               102.7467                10.9085

                      4                      5                      6
                      A                      A                      A
 Frequencies --    470.7041               821.6972              1019.1987
 Red. masses --      7.9543                 1.0838                 2.5604
 Frc consts  --      1.0384                 0.4311                 1.5670
 IR Inten    --      1.2962                 0.8530                39.4185

                      7                      8                      9
                      A                      A                      A
 Frequencies --   1093.8280              1099.0514              1175.5610
 Red. masses --      5.5974                 6.0047                 1.5292
 Frc consts  --      3.9458                 4.2734                 1.2451
 IR Inten    --     36.9872               130.7675                 0.0905

                     10                     11                     12
                      A                      A                      A
 Frequencies --   1231.7258              1247.0068              1297.6390
 Red. masses --      1.1562                 1.1807                 1.1025
 Frc consts  --      1.0335                 1.0818                 1.0938
 IR Inten    --      2.8282                39.9035                 0.0807

                     13                     14                     15
                      A                      A                      A
 Frequencies --   1397.0168              1476.1350              1520.1616
 Red. masses --      1.2847                 1.5404                 1.0821
 Frc consts  --      1.4773                 1.9775                 1.4733
 IR Inten    --      7.6274                 4.0740                 0.0179

                     16                     17                     18
                      A                      A                      A
 Frequencies --   1534.1629              2980.2122              3012.3673
 Red. masses --      1.0869                 1.0544                 1.1067
 Frc consts  --      1.5072                 5.5175                 5.9171
 IR Inten    --      3.7298                49.1746                38.1865

                     19                     20                     21
                      A                      A                      A
 Frequencies --   3033.5981              3085.1877              3843.8789
 Red. masses --      1.0551                 1.1106                 1.0666
 Frc consts  --      5.7210                 6.2284                 9.2856
 IR Inten    --     40.6863                55.4797                29.2037

 - Thermochemistry -
 -------------------
 Temperature   298.150 Kelvin.  Pressure   1.00000 Atm.
 Atom     1 has atomic number  6 and mass  12.00000

 Molecular mass:    64.03244 amu.
 Principal axes and moments of inertia in atomic units:
                           1         2         3
     Eigenvalues --    57.72204 457.17578 492.10569
           X            0.99951  -0.03131   0.00001
           Y            0.03131   0.99951  -0.00000
           Z           -0.00001   0.00000   1.00000
 This molecule is an asymmetric top.
 Rotational symmetry number  1.
 Rotational temperatures (Kelvin)      1.50053     0.18945     0.17601
 Rotational constants (GHZ):          31.26607     3.94759     3.66739
 Zero-point vibrational energy     191149.7 (Joules/Mol)
                                   45.68587 (Kcal/Mol)
 Warning -- explicit consideration of   4 degrees of freedom as
           vibrations may cause significant error
 Vibrational temperatures:    172.12   313.39   404.50   677.24  1182.24
          (Kelvin)           1466.40  1573.77  1581.29  1691.37  1772.18
                             1794.16  1867.01  2010.00  2123.83  2187.17
                             2207.32  4287.86  4334.12  4364.67  4438.90
                             5530.48

 Zero-point correction=                           0.072805 (Hartree/Particle)
 Thermal correction to Energy=                    0.077797
 Thermal correction to Enthalpy=                  0.078741
 Thermal correction to Gibbs Free Energy=         0.045286
 Sum of electronic and zero-point Energies=           -254.208084
 Sum of electronic and thermal Energies=              -254.203092
 Sum of electronic and thermal Enthalpies=            -254.202148
 Sum of electronic and thermal Free Energies=         -254.235603

                     E (Thermal)             CV                S
                      KCal/Mol        Cal/Mol-Kelvin    Cal/Mol-Kelvin
 Total                   48.818             15.327             70.412
 Electronic               0.000              0.000              0.000
 Translational            0.889              2.981             38.389
 Rotational               0.889              2.981             24.078
 Vibrational             47.041              9.366              7.945
 Vibration     1          0.609              1.933              3.106
 Vibration     2          0.646              1.814              1.977
 Vibration     3          0.681              1.709              1.527
 Vibration     4          0.828              1.315              0.736

 Normal termination of Gaussian 16 at Thu Dec  5 18:22:52 2024.
