 Gaussian 16, Revision C.01,
 Gaussian 16:  ES64L-G16RevC.01  3-Jul-2019

 -------------------------
 # freq b3lyp/6-31g(2df,p)
 -------------------------

 -------------------------------------------------------------------
 energy: -15.614184499692 gnorm: 0.000439253721 xtb: 6.6.1 (8d0f1dd)
 -------------------------------------------------------------------
 Symbolic Z-matrix:
 Charge =  0 Multiplicity = 1

                         Standard orientation:
 ---------------------------------------------------------------------
 Center     Atomic      Atomic             Coordinates (Angstroms)
 Number     Number       Type             X           Y           Z
 ---------------------------------------------------------------------
      1          6           0        0.701667    0.621307   -0.180696
      2          1           0        0.801359    0.825704   -1.259345
      3          1           0        1.155855    1.468461    0.358358
      4          6           0       -0.777667    0.564676    0.189579
      5          1           0       -1.327002    1.360902   -0.328495
      6          1           0       -0.900699    0.700976    1.272066
      7          9           0       -1.311147   -0.658440   -0.133283
      8          8           0        1.287350   -0.622440    0.143734
      9          1           0        2.228008   -0.566459   -0.046206
 ---------------------------------------------------------------------

 SCF Done:  E(RB3LYP) =  -254.277271977     A.U. after   12 cycles

 The electronic state is 1-A.
 Alpha  occ. eigenvalues --  -24.66158 -19.13892 -10.25278 -10.23569  -1.17812
 Alpha  occ. eigenvalues --   -1.02135  -0.74861  -0.61750  -0.52992  -0.49701
 Alpha  occ. eigenvalues --   -0.46490  -0.44698  -0.42296  -0.36000  -0.32784
 Alpha  occ. eigenvalues --   -0.31851  -0.27186
 Alpha virt. eigenvalues --    0.06676   0.11128   0.12816   0.14391   0.16416
 Alpha virt. eigenvalues --    0.19424   0.22192   0.23615   0.43037   0.47507
 Alpha virt. eigenvalues --    0.48991   0.50428   0.54934   0.60184   0.65523

 Mulliken charges:
               1
     1  C   -0.092021
     2  H    0.093022
     3  H    0.089994
     4  C   -0.040597
     5  H    0.099754
     6  H    0.103715
     7  F   -0.143332
     8  O   -0.401858
     9  H    0.291323
 Sum of Mulliken charges =  -0.00000

 Dipole moment (field-independent basis, Debye):
    X=              1.5827    Y=              2.3310    Z=             -0.1890  Tot=              2.8239
 Quadrupole moment (field-independent basis, Debye-Ang):
   XX=            -20.0336   YY=            -24.1754   ZZ=            -23.3221
   XY=             -1.2708   XZ=             -1.1507   YZ=              0.2223

  Exact polarizability:      31.020      -1.339      28.433      -0.564      -0.312      26.250
 Approx polarizability:      38.194      -0.394      39.997      -0.029      -0.414      35.662

                      1                      2                      3
                      A                      A                      A
 Frequencies --    114.1220               231.2782               289.9388
 Red. masses --      2.5053                 1.1018                 4.3445
 Frc consts  --      0.0192                 0.0347                 0.2152
 IR Inten    --      6.3198               110.3216                 2.3204

                      4                      5                      6
                      A                      A                      A
 Frequencies --    542.6835               872.7476               902.5638
 Red. masses --      2.7909                 1.5769                 2.6135
 Frc consts  --      0.4843                 0.7076                 1.2544
 IR Inten    --     18.9680                19.4222                14.6572

                      7                      8                      9
                      A                      A                      A
 Frequencies --   1098.1953              1113.3836              1164.1493
 Red. masses --      3.3740                 3.4749                 2.1431
 Frc consts  --      2.3975                 2.5379                 1.7113
 IR Inten    --     43.9185                90.8314                25.4423

                     10                     11                     12
                      A                      A                      A
 Frequencies --   1221.6769              1276.6505              1315.7627
 Red. masses --      1.1262                 1.1387                 1.1192
 Frc consts  --      0.9903                 1.0934                 1.1415
 IR Inten    --     26.4754                 3.4918                19.0485

                     13                     14                     15
                      A                      A                      A
 Frequencies --   1431.8948              1472.1345              1506.7864
 Red. masses --      1.2689                 1.4868                 1.0868
 Frc consts  --      1.5328                 1.8985                 1.4538
 IR Inten    --     14.4983                 0.7430                 3.7030

                     16                     17                     18
                      A                      A                      A
 Frequencies --   1517.6393              2962.9297              2989.9578
 Red. masses --      1.0841                 1.0561                 1.1015
 Frc consts  --      1.4712                 5.4627                 5.8017
 IR Inten    --      2.3237                52.0354                35.2181

                     19                     20                     21
                      A                      A                      A
 Frequencies --   3019.7115              3064.4853              3837.1004
 Red. masses --      1.0589                 1.1085                 1.0665
 Frc consts  --      5.6891                 6.1336                 9.2516
 IR Inten    --     60.7120                56.6928                25.1130

 - Thermochemistry -
 -------------------
 Temperature   298.150 Kelvin.  Pressure   1.00000 Atm.
 Atom     1 has atomic number  6 and mass  12.00000

 Molecular mass:    64.03244 amu.
 Principal axes and moments of inertia in atomic units:
                           1         2         3
     Eigenvalues --   117.80706 309.92900 392.53848
           X            0.99912  -0.03677  -0.02026
           Y            0.03670   0.99932  -0.00352
           Z            0.02037   0.00277   0.99979
 This molecule is an asymmetric top.
 Rotational symmetry number  1.
 Rotational temperatures (Kelvin)      0.73522     0.27946     0.22065
 Rotational constants (GHZ):          15.31946     5.82308     4.59762
 Zero-point vibrational energy     191078.3 (Joules/Mol)
                                   45.66880 (Kcal/Mol)
 Warning -- explicit consideration of   4 degrees of freedom as
           vibrations may cause significant error
 Vibrational temperatures:    164.20   332.76   417.16   780.80  1255.69
          (Kelvin)           1298.59  1580.06  1601.91  1674.95  1757.72
                             1836.82  1893.09  2060.18  2118.07  2167.93
                             2183.54  4262.99  4301.88  4344.69  4409.11
                             5520.73

 Zero-point correction=                           0.072778 (Hartree/Particle)
 Thermal correction to Energy=                    0.077700
 Thermal correction to Enthalpy=                  0.078644
 Thermal correction to Gibbs Free Energy=         0.045255
 Sum of electronic and zero-point Energies=           -254.204494
 Sum of electronic and thermal Energies=              -254.199572
 Sum of electronic and thermal Enthalpies=            -254.198628
 Sum of electronic and thermal Free Energies=         -254.232017

                     E (Thermal)             CV                S
                      KCal/Mol        Cal/Mol-Kelvin    Cal/Mol-Kelvin
 Total                   48.757             15.169             70.274
 Electronic               0.000              0.000              0.000
 Translational            0.889              2.981             38.389
 Rotational               0.889              2.981             24.175
 Vibrational             46.980              9.207              7.709
 Vibration     1          0.607              1.938              3.198
 Vibration     2          0.653              1.793              1.869
 Vibration     3          0.686              1.692              1.474
 Vibration     4          0.898              1.156              0.560

 Normal termination of Gaussian 16 at Thu Dec  5 18:22:52 2024.
