 Gaussian 16, Revision C.01,
 Gaussian 16:  ES64L-G16RevC.01  3-Jul-2019

 -------------------------
 # freq b3lyp/6-31g(2df,p)
 -------------------------

 -------------------------------------------------------------------
 energy: -15.614184499692 gnorm: 0.000439253721 xtb: 6.6.1 (8d0f1dd)
 -------------------------------------------------------------------
 Symbolic Z-matrix:
 Charge =  0 Multiplicity = 1

                         Standard orientation:
 ---------------------------------------------------------------------
 Center     Atomic      Atomic             Coordinates (Angstroms)
 Number     Number       Type             X           Y           Z
 ---------------------------------------------------------------------
      1          6           0        0.568619    0.492140    0.154757
      2          1           0        0.345185    1.254154   -0.607642
      3          1           0        0.676076    1.003966    1.121779
      4          6           0       -0.609038   -0.479633    0.174135
      5          1           0       -0.753400   -0.941995    1.156788
      6          1           0       -0.413360   -1.267586   -0.562877
      7          9           0       -1.765656    0.184638   -0.177075
      8          8           0        1.723144   -0.261018   -0.177569
      9          1           0        2.493764    0.302821   -0.067174
 ---------------------------------------------------------------------

 SCF Done:  E(RB3LYP) =  -254.278890593     A.U. after   11 cycles

 The electronic state is 1-A.
 Alpha  occ. eigenvalues --  -24.66618 -19.14415 -10.25113 -10.23458  -1.18095
 Alpha  occ. eigenvalues --   -1.02525  -0.74588  -0.62121  -0.52986  -0.49912
 Alpha  occ. eigenvalues --   -0.46051  -0.45384  -0.42306  -0.36480  -0.32993
 Alpha  occ. eigenvalues --   -0.32145  -0.27630
 Alpha virt. eigenvalues --    0.06347   0.10481   0.14274   0.14741   0.15753
 Alpha virt. eigenvalues --    0.19914   0.21991   0.25174   0.42673   0.47066
 Alpha virt. eigenvalues --    0.48750   0.51336   0.54036   0.63589   0.66220

 Mulliken charges:
               1
     1  C   -0.096046
     2  H    0.103537
     3  H    0.096183
     4  C   -0.044485
     5  H    0.105920
     6  H    0.117283
     7  F   -0.157530
     8  O   -0.417502
     9  H    0.292639
 Sum of Mulliken charges =  -0.00000

 Dipole moment (field-independent basis, Debye):
    X=              1.5959    Y=              0.7309    Z=              0.8068  Tot=              1.9318
 Quadrupole moment (field-independent basis, Debye-Ang):
   XX=            -23.6552   YY=            -23.0014   ZZ=            -23.2020
   XY=              3.7765   XZ=              0.1018   YZ=             -0.1103

  Exact polarizability:      31.492       0.738      27.609      -0.224       0.212      25.820
 Approx polarizability:      39.867      -1.130      37.559       0.166       0.493      35.176

                      1                      2                      3
                      A                      A                      A
 Frequencies --     43.5432               239.9728               324.0695
 Red. masses --      3.0623                 1.1171                 3.2118
 Frc consts  --      0.0034                 0.0379                 0.1987
 IR Inten    --      4.9829               109.3172                18.8734

                      4                      5                      6
                      A                      A                      A
 Frequencies --    463.4766               824.9142              1011.6222
 Red. masses --      6.6448                 1.1873                 2.7170
 Frc consts  --      0.8410                 0.4760                 1.6382
 IR Inten    --      1.4310                 2.2303                35.0596

                      7                      8                      9
                      A                      A                      A
 Frequencies --   1081.6497              1100.9446              1157.4512
 Red. masses --      7.2565                 4.3084                 1.6187
 Frc consts  --      5.0021                 3.0768                 1.2777
 IR Inten    --    146.0747                15.1670                 0.3414

                     10                     11                     12
                      A                      A                      A
 Frequencies --   1243.3180              1256.0794              1291.1740
 Red. masses --      1.1449                 1.1607                 1.0825
 Frc consts  --      1.0427                 1.0790                 1.0633
 IR Inten    --      2.7701                36.8091                 8.8695

                     13                     14                     15
                      A                      A                      A
 Frequencies --   1398.4229              1471.5937              1512.5506
 Red. masses --      1.2700                 1.4895                 1.0821
 Frc consts  --      1.4633                 1.9005                 1.4586
 IR Inten    --      8.0677                 4.1469                 0.2764

                     16                     17                     18
                      A                      A                      A
 Frequencies --   1528.7570              2983.6191              3019.1776
 Red. masses --      1.0858                 1.0556                 1.1046
 Frc consts  --      1.4951                 5.5367                 5.9324
 IR Inten    --      4.9108                46.1164                36.1426

                     19                     20                     21
                      A                      A                      A
 Frequencies --   3034.7030              3086.8736              3837.7884
 Red. masses --      1.0569                 1.1101                 1.0665
 Frc consts  --      5.7345                 6.2325                 9.2548
 IR Inten    --     37.2500                51.2015                26.1952

 - Thermochemistry -
 -------------------
 Temperature   298.150 Kelvin.  Pressure   1.00000 Atm.
 Atom     1 has atomic number  6 and mass  12.00000

 Molecular mass:    64.03244 amu.
 Principal axes and moments of inertia in atomic units:
                           1         2         3
     Eigenvalues --    62.65277 455.41365 482.07538
           X            0.99951   0.03101  -0.00423
           Y           -0.03102   0.99952  -0.00140
           Z            0.00419   0.00153   0.99999
 This molecule is an asymmetric top.
 Rotational symmetry number  1.
 Rotational temperatures (Kelvin)      1.38244     0.19019     0.17967
 Rotational constants (GHZ):          28.80545     3.96286     3.74369
 Zero-point vibrational energy     190874.4 (Joules/Mol)
                                   45.62007 (Kcal/Mol)
 Warning -- explicit consideration of   4 degrees of freedom as
           vibrations may cause significant error
 Vibrational temperatures:     62.65   345.27   466.26   666.84  1186.87
          (Kelvin)           1455.50  1556.25  1584.01  1665.31  1788.86
                             1807.22  1857.71  2012.02  2117.30  2176.22
                             2199.54  4292.76  4343.92  4366.26  4441.32
                             5521.72

 Zero-point correction=                           0.072700 (Hartree/Particle)
 Thermal correction to Energy=                    0.077765
 Thermal correction to Enthalpy=                  0.078709
 Thermal correction to Gibbs Free Energy=         0.044467
 Sum of electronic and zero-point Energies=           -254.206190
 Sum of electronic and thermal Energies=              -254.201126
 Sum of electronic and thermal Enthalpies=            -254.200182
 Sum of electronic and thermal Free Energies=         -254.234423

                     E (Thermal)             CV                S
                      KCal/Mol        Cal/Mol-Kelvin    Cal/Mol-Kelvin
 Total                   48.798             15.295             72.068
 Electronic               0.000              0.000              0.000
 Translational            0.889              2.981             38.389
 Rotational               0.889              2.981             24.135
 Vibrational             47.021              9.333              9.544
 Vibration     1          0.595              1.980              5.091
 Vibration     2          0.657              1.779              1.803
 Vibration     3          0.709              1.627              1.289
 Vibration     4          0.821              1.331              0.756

 Normal termination of Gaussian 16 at Thu Dec  5 18:23:59 2024.
