 Gaussian 16, Revision C.01,
 Gaussian 16:  ES64L-G16RevC.01  3-Jul-2019

 -------------------------
 # freq b3lyp/6-31g(2df,p)
 -------------------------

 -------------------------------------------------------------------
 energy: -15.614184499692 gnorm: 0.000439253721 xtb: 6.6.1 (8d0f1dd)
 -------------------------------------------------------------------
 Symbolic Z-matrix:
 Charge =  0 Multiplicity = 1

                         Standard orientation:
 ---------------------------------------------------------------------
 Center     Atomic      Atomic             Coordinates (Angstroms)
 Number     Number       Type             X           Y           Z
 ---------------------------------------------------------------------
      1          6           0       -0.687877    0.600968   -0.220178
      2          1           0       -1.148889    1.498144    0.225495
      3          1           0       -0.720701    0.719450   -1.315372
      4          6           0        0.760979    0.546604    0.231445
      5          1           0        0.814826    0.602957    1.326443
      6          1           0        1.318287    1.390441   -0.195236
      7          9           0        1.342410   -0.636985   -0.155831
      8          8           0       -1.318943   -0.599052    0.176881
      9          1           0       -2.232288   -0.571146   -0.121500
 ---------------------------------------------------------------------

 SCF Done:  E(RB3LYP) =  -254.279348320     A.U. after   12 cycles

 The electronic state is 1-A.
 Alpha  occ. eigenvalues --  -24.66152 -19.13918 -10.25243 -10.23561  -1.17774
 Alpha  occ. eigenvalues --   -1.02168  -0.75016  -0.61745  -0.53096  -0.49736
 Alpha  occ. eigenvalues --   -0.46314  -0.44767  -0.42313  -0.36210  -0.32873
 Alpha  occ. eigenvalues --   -0.31718  -0.27366
 Alpha virt. eigenvalues --    0.06896   0.11258   0.12903   0.15081   0.16466
 Alpha virt. eigenvalues --    0.18630   0.21609   0.23093   0.43410   0.47289
 Alpha virt. eigenvalues --    0.49029   0.50453   0.55661   0.60290   0.65561

 Mulliken charges:
               1
     1  C   -0.088888
     2  H    0.088375
     3  H    0.094990
     4  C   -0.037486
     5  H    0.105964
     6  H    0.098378
     7  F   -0.148077
     8  O   -0.404799
     9  H    0.291542
 Sum of Mulliken charges =  -0.00000

 Dipole moment (field-independent basis, Debye):
    X=             -1.5659    Y=              2.2303    Z=             -0.3466  Tot=              2.7471
 Quadrupole moment (field-independent basis, Debye-Ang):
   XX=            -20.3788   YY=            -24.0760   ZZ=            -23.2689
   XY=              1.3184   XZ=              1.7352   YZ=              0.3257

  Exact polarizability:      30.981       1.398      28.399       0.769      -0.291      26.445
 Approx polarizability:      38.270       0.525      39.819       0.198      -0.447      36.034

                      1                      2                      3
                      A                      A                      A
 Frequencies --    147.8345               228.4295               301.1703
 Red. masses --      2.9485                 1.1535                 2.9683
 Frc consts  --      0.0380                 0.0355                 0.1586
 IR Inten    --     12.5240               101.2068                 5.6140

                      4                      5                      6
                      A                      A                      A
 Frequencies --    524.0985               880.1202               899.9320
 Red. masses --      2.5242                 1.7618                 2.4181
 Frc consts  --      0.4085                 0.8041                 1.1539
 IR Inten    --     17.4911                21.1743                20.9138

                      7                      8                      9
                      A                      A                      A
 Frequencies --   1095.0041              1111.9281              1154.2688
 Red. masses --      3.0347                 3.2186                 2.2902
 Frc consts  --      2.1439                 2.3446                 1.7978
 IR Inten    --     62.0228                60.2894                29.0603

                     10                     11                     12
                      A                      A                      A
 Frequencies --   1231.2054              1269.7509              1318.6338
 Red. masses --      1.1394                 1.1399                 1.1143
 Frc consts  --      1.0176                 1.0829                 1.1416
 IR Inten    --     30.2603                 3.4101                21.8924

                     13                     14                     15
                      A                      A                      A
 Frequencies --   1429.5205              1472.0996              1502.9278
 Red. masses --      1.2718                 1.5237                 1.0881
 Frc consts  --      1.5313                 1.9455                 1.4481
 IR Inten    --     13.6501                 1.4123                 4.9077

                     16                     17                     18
                      A                      A                      A
 Frequencies --   1512.5752              2962.9952              2991.3533
 Red. masses --      1.0893                 1.0551                 1.1023
 Frc consts  --      1.4683                 5.4578                 5.8112
 IR Inten    --      2.8504                49.2864                37.1422

                     19                     20                     21
                      A                      A                      A
 Frequencies --   3020.8299              3066.6284              3837.2149
 Red. masses --      1.0586                 1.1087                 1.0665
 Frc consts  --      5.6915                 6.1431                 9.2523
 IR Inten    --     57.2555                53.6257                25.2538

 - Thermochemistry -
 -------------------
 Temperature   298.150 Kelvin.  Pressure   1.00000 Atm.
 Atom     1 has atomic number  6 and mass  12.00000

 Molecular mass:    64.03244 amu.
 Principal axes and moments of inertia in atomic units:
                           1         2         3
     Eigenvalues --   114.99783 320.29361 394.16926
           X            0.99908   0.03469   0.02520
           Y           -0.03464   0.99940  -0.00266
           Z           -0.02528   0.00178   0.99968
 This molecule is an asymmetric top.
 Rotational symmetry number  1.
 Rotational temperatures (Kelvin)      0.75318     0.27042     0.21974
 Rotational constants (GHZ):          15.69370     5.63465     4.57859
 Zero-point vibrational energy     191154.4 (Joules/Mol)
                                   45.68700 (Kcal/Mol)
 Warning -- explicit consideration of   4 degrees of freedom as
           vibrations may cause significant error
 Vibrational temperatures:    212.70   328.66   433.32   754.06  1266.30
          (Kelvin)           1294.80  1575.47  1599.82  1660.74  1771.43
                             1826.89  1897.22  2056.76  2118.02  2162.38
                             2176.26  4263.09  4303.89  4346.30  4412.19
                             5520.90

 Zero-point correction=                           0.072807 (Hartree/Particle)
 Thermal correction to Energy=                    0.077671
 Thermal correction to Enthalpy=                  0.078615
 Thermal correction to Gibbs Free Energy=         0.045456
 Sum of electronic and zero-point Energies=           -254.206541
 Sum of electronic and thermal Energies=              -254.201678
 Sum of electronic and thermal Enthalpies=            -254.200734
 Sum of electronic and thermal Free Energies=         -254.233892

                     E (Thermal)             CV                S
                      KCal/Mol        Cal/Mol-Kelvin    Cal/Mol-Kelvin
 Total                   48.739             15.164             69.788
 Electronic               0.000              0.000              0.000
 Translational            0.889              2.981             38.389
 Rotational               0.889              2.981             24.188
 Vibrational             46.962              9.203              7.210
 Vibration     1          0.617              1.905              2.700
 Vibration     2          0.651              1.798              1.891
 Vibration     3          0.693              1.671              1.410
 Vibration     4          0.879              1.197              0.601

 Normal termination of Gaussian 16 at Thu Dec  5 18:22:52 2024.
