 Gaussian 16, Revision C.01,
 Gaussian 16:  ES64L-G16RevC.01  3-Jul-2019

 -------------------------
 # freq b3lyp/6-31g(2df,p)
 -------------------------

 -------------------------------------------------------------------
 energy: -15.614184499692 gnorm: 0.000439253721 xtb: 6.6.1 (8d0f1dd)
 -------------------------------------------------------------------
 Symbolic Z-matrix:
 Charge =  0 Multiplicity = 1

                         Standard orientation:
 ---------------------------------------------------------------------
 Center     Atomic      Atomic             Coordinates (Angstroms)
 Number     Number       Type             X           Y           Z
 ---------------------------------------------------------------------
      1          6           0       -0.568950    0.492281    0.155336
      2          1           0       -0.677151    1.003778    1.122426
      3          1           0       -0.345080    1.254888   -0.606398
      4          6           0        0.609267   -0.478987    0.175103
      5          1           0        0.413253   -1.268646   -0.560110
      6          1           0        0.753293   -0.939757    1.158600
      7          9           0        1.765724    0.184257   -0.178016
      8          8           0       -1.722995   -0.261332   -0.178326
      9          1           0       -2.493771    0.302311   -0.068396
 ---------------------------------------------------------------------

 SCF Done:  E(RB3LYP) =  -254.278873584     A.U. after   11 cycles

 The electronic state is 1-A.
 Alpha  occ. eigenvalues --  -24.66624 -19.14417 -10.25115 -10.23460  -1.18103
 Alpha  occ. eigenvalues --   -1.02522  -0.74588  -0.62121  -0.52986  -0.49912
 Alpha  occ. eigenvalues --   -0.46052  -0.45387  -0.42304  -0.36485  -0.32990
 Alpha  occ. eigenvalues --   -0.32148  -0.27630
 Alpha virt. eigenvalues --    0.06349   0.10479   0.14271   0.14739   0.15750
 Alpha virt. eigenvalues --    0.19918   0.21992   0.25172   0.42671   0.47074
 Alpha virt. eigenvalues --    0.48743   0.51344   0.54036   0.63594   0.66229

 Mulliken charges:
               1
     1  C   -0.096197
     2  H    0.096211
     3  H    0.103555
     4  C   -0.044519
     5  H    0.117296
     6  H    0.105861
     7  F   -0.157351
     8  O   -0.417478
     9  H    0.292622
 Sum of Mulliken charges =  -0.00000

 Dipole moment (field-independent basis, Debye):
    X=             -1.5958    Y=              0.7323    Z=              0.8092  Tot=              1.9333
 Quadrupole moment (field-independent basis, Debye-Ang):
   XX=            -23.6521   YY=            -23.0023   ZZ=            -23.2045
   XY=             -3.7727   XZ=             -0.0986   YZ=             -0.1108

  Exact polarizability:      31.494      -0.736      27.610       0.224       0.212      25.822
 Approx polarizability:      39.869       1.131      37.563      -0.170       0.494      35.178

                      1                      2                      3
                      A                      A                      A
 Frequencies --     42.3881               238.6944               324.3192
 Red. masses --      3.0571                 1.1167                 3.2154
 Frc consts  --      0.0032                 0.0375                 0.1993
 IR Inten    --      4.8912               109.5613                18.7076

                      4                      5                      6
                      A                      A                      A
 Frequencies --    463.2055               825.0942              1011.3953
 Red. masses --      6.6341                 1.1886                 2.7178
 Frc consts  --      0.8386                 0.4768                 1.6380
 IR Inten    --      1.4346                 2.2469                35.1468

                      7                      8                      9
                      A                      A                      A
 Frequencies --   1081.2714              1101.1711              1157.1788
 Red. masses --      7.2416                 4.2994                 1.6200
 Frc consts  --      4.9883                 3.0716                 1.2781
 IR Inten    --    144.1903                16.8152                 0.3531

                     10                     11                     12
                      A                      A                      A
 Frequencies --   1243.3141              1255.9664              1291.1773
 Red. masses --      1.1444                 1.1617                 1.0821
 Frc consts  --      1.0423                 1.0797                 1.0629
 IR Inten    --      2.6996                36.9304                 8.8551

                     13                     14                     15
                      A                      A                      A
 Frequencies --   1398.6046              1471.5399              1512.6612
 Red. masses --      1.2702                 1.4887                 1.0822
 Frc consts  --      1.4638                 1.8994                 1.4589
 IR Inten    --      8.0938                 4.1452                 0.2770

                     16                     17                     18
                      A                      A                      A
 Frequencies --   1528.8137              2983.5173              3019.0786
 Red. masses --      1.0858                 1.0557                 1.1044
 Frc consts  --      1.4952                 5.5369                 5.9309
 IR Inten    --      4.9380                46.0574                36.0243

                     19                     20                     21
                      A                      A                      A
 Frequencies --   3034.2146              3086.1805              3838.3960
 Red. masses --      1.0570                 1.1101                 1.0665
 Frc consts  --      5.7332                 6.2294                 9.2577
 IR Inten    --     37.2351                51.4735                26.1789

 - Thermochemistry -
 -------------------
 Temperature   298.150 Kelvin.  Pressure   1.00000 Atm.
 Atom     1 has atomic number  6 and mass  12.00000

 Molecular mass:    64.03244 amu.
 Principal axes and moments of inertia in atomic units:
                           1         2         3
     Eigenvalues --    62.69477 455.49551 482.07210
           X            0.99951  -0.03099   0.00428
           Y            0.03099   0.99952  -0.00151
           Z           -0.00423   0.00164   0.99999
 This molecule is an asymmetric top.
 Rotational symmetry number  1.
 Rotational temperatures (Kelvin)      1.38152     0.19015     0.17967
 Rotational constants (GHZ):          28.78615     3.96215     3.74372
 Zero-point vibrational energy     190853.3 (Joules/Mol)
                                   45.61504 (Kcal/Mol)
 Warning -- explicit consideration of   4 degrees of freedom as
           vibrations may cause significant error
 Vibrational temperatures:     60.99   343.43   466.62   666.45  1187.13
          (Kelvin)           1455.17  1555.71  1584.34  1664.92  1788.85
                             1807.06  1857.72  2012.28  2117.22  2176.38
                             2199.62  4292.62  4343.78  4365.56  4440.33
                             5522.60

 Zero-point correction=                           0.072692 (Hartree/Particle)
 Thermal correction to Energy=                    0.077761
 Thermal correction to Enthalpy=                  0.078705
 Thermal correction to Gibbs Free Energy=         0.044433
 Sum of electronic and zero-point Energies=           -254.206181
 Sum of electronic and thermal Energies=              -254.201113
 Sum of electronic and thermal Enthalpies=            -254.200168
 Sum of electronic and thermal Free Energies=         -254.234440

                     E (Thermal)             CV                S
                      KCal/Mol        Cal/Mol-Kelvin    Cal/Mol-Kelvin
 Total                   48.796             15.298             72.131
 Electronic               0.000              0.000              0.000
 Translational            0.889              2.981             38.389
 Rotational               0.889              2.981             24.135
 Vibrational             47.018              9.336              9.606
 Vibration     1          0.595              1.980              5.144
 Vibration     2          0.657              1.781              1.813
 Vibration     3          0.709              1.627              1.288
 Vibration     4          0.821              1.332              0.757

 Normal termination of Gaussian 16 at Thu Dec  5 18:23:56 2024.
