 Gaussian 16, Revision C.01,
 Gaussian 16:  ES64L-G16RevC.01  3-Jul-2019

 -------------------------
 # freq b3lyp/6-31g(2df,p)
 -------------------------

 -------------------------------------------------------------------
 energy: -15.614184499692 gnorm: 0.000439253721 xtb: 6.6.1 (8d0f1dd)
 -------------------------------------------------------------------
 Symbolic Z-matrix:
 Charge =  0 Multiplicity = 1

                         Standard orientation:
 ---------------------------------------------------------------------
 Center     Atomic      Atomic             Coordinates (Angstroms)
 Number     Number       Type             X           Y           Z
 ---------------------------------------------------------------------
      1          6           0        0.591364    0.475326    0.252424
      2          1           0        0.331807    1.329242   -0.390820
      3          1           0        0.822320    0.864790    1.254528
      4          6           0       -0.634496   -0.444084    0.286635
      5          1           0       -0.915764   -0.724540    1.307627
      6          1           0       -0.396088   -1.351444   -0.279795
      7          9           0       -1.717952    0.177888   -0.300039
      8          8           0        1.676730   -0.273064   -0.272745
      9          1           0        2.464248    0.278020   -0.243584
 ---------------------------------------------------------------------

 SCF Done:  E(RB3LYP) =  -254.276997935     A.U. after   11 cycles

 The electronic state is 1-A.
 Alpha  occ. eigenvalues --  -24.66434 -19.14269 -10.25115 -10.23465  -1.17917
 Alpha  occ. eigenvalues --   -1.02363  -0.74520  -0.62121  -0.53001  -0.49761
 Alpha  occ. eigenvalues --   -0.45746  -0.45331  -0.42330  -0.36424  -0.32908
 Alpha  occ. eigenvalues --   -0.32091  -0.27479
 Alpha virt. eigenvalues --    0.06639   0.10119   0.13716   0.14677   0.15977
 Alpha virt. eigenvalues --    0.19824   0.22470   0.24707   0.42460   0.46986
 Alpha virt. eigenvalues --    0.48645   0.50797   0.55543   0.63697   0.67775

 Mulliken charges:
               1
     1  C   -0.090508
     2  H    0.107208
     3  H    0.093450
     4  C   -0.045307
     5  H    0.102743
     6  H    0.121252
     7  F   -0.160330
     8  O   -0.418768
     9  H    0.290260
 Sum of Mulliken charges =  -0.00000

 Dipole moment (field-independent basis, Debye):
    X=              1.5820    Y=              0.7528    Z=              1.0811  Tot=              2.0587
 Quadrupole moment (field-independent basis, Debye-Ang):
   XX=            -23.2759   YY=            -23.0028   ZZ=            -23.3364
   XY=              3.5925   XZ=             -0.5628   YZ=             -0.2944

  Exact polarizability:      31.608       0.887      27.325      -0.773       0.234      26.007
 Approx polarizability:      39.772      -0.739      37.328      -0.254       0.485      35.504

 ******    1 imaginary frequencies (negative Signs) ******

                      1                      2                      3
                      A                      A                      A
 Frequencies --   -129.3764               261.6494               381.1010
 Red. masses --      2.8320                 1.1116                 2.8743
 Frc consts  --      0.0279                 0.0448                 0.2460
 IR Inten    --      3.2616               114.1853                17.2576

                      4                      5                      6
                      A                      A                      A
 Frequencies --    441.1041               843.5702              1003.5683
 Red. masses --      5.0751                 1.4462                 2.6683
 Frc consts  --      0.5818                 0.6063                 1.5834
 IR Inten    --      1.8426                 6.9217                34.4511

                      7                      8                      9
                      A                      A                      A
 Frequencies --   1051.5743              1107.9091              1141.2477
 Red. masses --      4.2985                 3.9965                 1.9438
 Frc consts  --      2.8006                 2.8903                 1.4916
 IR Inten    --    112.5920                15.5601                12.8784

                     10                     11                     12
                      A                      A                      A
 Frequencies --   1249.4781              1261.3004              1279.8283
 Red. masses --      1.1224                 1.1477                 1.0775
 Frc consts  --      1.0324                 1.0758                 1.0398
 IR Inten    --     20.7104                26.3355                16.7025

                     13                     14                     15
                      A                      A                      A
 Frequencies --   1400.9676              1467.0411              1505.8186
 Red. masses --      1.2598                 1.4438                 1.0841
 Frc consts  --      1.4568                 1.8308                 1.4484
 IR Inten    --      7.6829                 3.8397                 0.4575

                     16                     17                     18
                      A                      A                      A
 Frequencies --   1521.0775              2984.9431              3018.7686
 Red. masses --      1.0837                 1.0554                 1.1017
 Frc consts  --      1.4772                 5.5403                 5.9152
 IR Inten    --      6.6368                46.0323                27.3477

                     19                     20                     21
                      A                      A                      A
 Frequencies --   3037.7585              3088.0922              3831.7758
 Red. masses --      1.0607                 1.1096                 1.0663
 Frc consts  --      5.7669                 6.2345                 9.2242
 IR Inten    --     45.0709                42.1686                22.8801

 - Thermochemistry -
 -------------------
 Temperature   298.150 Kelvin.  Pressure   1.00000 Atm.
 Atom     1 has atomic number  6 and mass  12.00000

 Molecular mass:    64.03244 amu.
 Principal axes and moments of inertia in atomic units:
                           1         2         3
     Eigenvalues --    71.17211 450.06064 462.80175
           X            0.99945   0.03124  -0.01112
           Y           -0.03138   0.99942  -0.01306
           Z            0.01070   0.01340   0.99985
 This molecule is an asymmetric top.
 Rotational symmetry number  1.
 Rotational temperatures (Kelvin)      1.21696     0.19245     0.18715
 Rotational constants (GHZ):          25.35742     4.01000     3.89960
    1 imaginary frequencies ignored.
 Zero-point vibrational energy     190676.2 (Joules/Mol)
                                   45.57271 (Kcal/Mol)
 Warning -- explicit consideration of   3 degrees of freedom as
           vibrations may cause significant error
 Vibrational temperatures:    376.46   548.32   634.65  1213.71  1443.91
          (Kelvin)           1512.98  1594.03  1642.00  1797.72  1814.73
                             1841.39  2015.68  2110.74  2166.54  2188.49
                             4294.67  4343.33  4370.66  4443.08  5513.07

 Zero-point correction=                           0.072625 (Hartree/Particle)
 Thermal correction to Energy=                    0.076767
 Thermal correction to Enthalpy=                  0.077711
 Thermal correction to Gibbs Free Energy=         0.046014
 Sum of electronic and zero-point Energies=           -254.204373
 Sum of electronic and thermal Energies=              -254.200231
 Sum of electronic and thermal Enthalpies=            -254.199287
 Sum of electronic and thermal Free Energies=         -254.230984

                     E (Thermal)             CV                S
                      KCal/Mol        Cal/Mol-Kelvin    Cal/Mol-Kelvin
 Total                   48.172             13.229             66.712
 Electronic               0.000              0.000              0.000
 Translational            0.889              2.981             38.389
 Rotational               0.889              2.981             24.209
 Vibrational             46.395              7.267              4.114
 Vibration     1          0.669              1.743              1.651
 Vibration     2          0.751              1.510              1.035
 Vibration     3          0.801              1.381              0.823

 Normal termination of Gaussian 16 at Thu Dec  5 18:23:54 2024.
