 Gaussian 16, Revision C.01,
 Gaussian 16:  ES64L-G16RevC.01  3-Jul-2019

 -------------------------
 # freq b3lyp/6-31g(2df,p)
 -------------------------

 -------------------------------------------------------------------
 energy: -15.614184499692 gnorm: 0.000439253721 xtb: 6.6.1 (8d0f1dd)
 -------------------------------------------------------------------
 Symbolic Z-matrix:
 Charge =  0 Multiplicity = 1

                         Standard orientation:
 ---------------------------------------------------------------------
 Center     Atomic      Atomic             Coordinates (Angstroms)
 Number     Number       Type             X           Y           Z
 ---------------------------------------------------------------------
      1          6           0       -0.554860    0.498945    0.051088
      2          1           0       -0.531474    1.103476    0.969969
      3          1           0       -0.413012    1.180223   -0.802052
      4          6           0        0.595599   -0.497036    0.059535
      5          1           0        0.488779   -1.184707   -0.787907
      6          1           0        0.606600   -1.081772    0.986506
      7          9           0        1.786338    0.187179   -0.058687
      8          8           0       -1.747271   -0.257069   -0.063676
      9          1           0       -2.494192    0.343272    0.007329
 ---------------------------------------------------------------------

 SCF Done:  E(RB3LYP) =  -254.280637303     A.U. after   12 cycles

 The electronic state is 1-A.
 Alpha  occ. eigenvalues --  -24.66776 -19.14486 -10.25133 -10.23454  -1.18250
 Alpha  occ. eigenvalues --   -1.02626  -0.74685  -0.62099  -0.52921  -0.50029
 Alpha  occ. eigenvalues --   -0.46426  -0.45438  -0.42265  -0.36530  -0.32963
 Alpha  occ. eigenvalues --   -0.32234  -0.27756
 Alpha virt. eigenvalues --    0.06169   0.10787   0.14477   0.14907   0.15683
 Alpha virt. eigenvalues --    0.20028   0.21716   0.24884   0.42948   0.46800
 Alpha virt. eigenvalues --    0.49634   0.51672   0.53600   0.62849   0.65546

 Mulliken charges:
               1
     1  C   -0.099826
     2  H    0.098060
     3  H    0.100152
     4  C   -0.043077
     5  H    0.113086
     6  H    0.109222
     7  F   -0.155140
     8  O   -0.417014
     9  H    0.294536
 Sum of Mulliken charges =  -0.00000

 Dipole moment (field-independent basis, Debye):
    X=             -1.5694    Y=              0.7682    Z=              0.3279  Tot=              1.7778
 Quadrupole moment (field-independent basis, Debye-Ang):
   XX=            -23.9644   YY=            -22.9421   ZZ=            -23.1135
   XY=             -3.9867   XZ=             -0.1959   YZ=             -0.0084

  Exact polarizability:      31.216      -0.629      27.881      -0.013       0.098      25.812
 Approx polarizability:      39.614       1.371      37.881      -0.173       0.245      35.062

                      1                      2                      3
                      A                      A                      A
 Frequencies --    117.3050               219.3275               287.3101
 Red. masses --      3.3740                 1.0865                 3.6912
 Frc consts  --      0.0274                 0.0308                 0.1795
 IR Inten    --     16.2120               104.2658                13.7680

                      4                      5                      6
                      A                      A                      A
 Frequencies --    470.1203               821.4922              1019.8704
 Red. masses --      7.7893                 1.0946                 2.5752
 Frc consts  --      1.0143                 0.4352                 1.5782
 IR Inten    --      1.3050                 0.9332                39.7313

                      7                      8                      9
                      A                      A                      A
 Frequencies --   1091.4961              1098.5476              1172.3294
 Red. masses --      6.4216                 5.2236                 1.5377
 Frc consts  --      4.5076                 3.7142                 1.2452
 IR Inten    --     71.1908                95.2584                 0.5510

                     10                     11                     12
                      A                      A                      A
 Frequencies --   1233.1880              1249.6000              1297.4224
 Red. masses --      1.1581                 1.1735                 1.1010
 Frc consts  --      1.0377                 1.0796                 1.0919
 IR Inten    --      2.9198                38.0120                 1.4592

                     13                     14                     15
                      A                      A                      A
 Frequencies --   1397.3858              1475.8930              1519.0891
 Red. masses --      1.2821                 1.5359                 1.0818
 Frc consts  --      1.4750                 1.9711                 1.4708
 IR Inten    --      7.7642                 4.1130                 0.0593

                     16                     17                     18
                      A                      A                      A
 Frequencies --   1533.3881              2981.3528              3014.6596
 Red. masses --      1.0869                 1.0549                 1.1062
 Frc consts  --      1.5057                 5.5245                 5.9233
 IR Inten    --      3.8388                48.5170                37.3596

                     19                     20                     21
                      A                      A                      A
 Frequencies --   3033.4227              3085.0436              3842.3011
 Red. masses --      1.0553                 1.1105                 1.0666
 Frc consts  --      5.7212                 6.2271                 9.2778
 IR Inten    --     40.0694                55.4694                28.8289

 - Thermochemistry -
 -------------------
 Temperature   298.150 Kelvin.  Pressure   1.00000 Atm.
 Atom     1 has atomic number  6 and mass  12.00000

 Molecular mass:    64.03244 amu.
 Principal axes and moments of inertia in atomic units:
                           1         2         3
     Eigenvalues --    58.25572 457.07202 491.01422
           X            0.99951  -0.03120   0.00072
           Y            0.03120   0.99951   0.00023
           Z           -0.00073  -0.00021   1.00000
 This molecule is an asymmetric top.
 Rotational symmetry number  1.
 Rotational temperatures (Kelvin)      1.48679     0.18950     0.17640
 Rotational constants (GHZ):          30.97964     3.94848     3.67554
 Zero-point vibrational energy     191166.5 (Joules/Mol)
                                   45.68989 (Kcal/Mol)
 Warning -- explicit consideration of   4 degrees of freedom as
           vibrations may cause significant error
 Vibrational temperatures:    168.78   315.56   413.38   676.40  1181.94
          (Kelvin)           1467.37  1570.42  1580.57  1686.72  1774.28
                             1797.90  1866.70  2010.53  2123.48  2185.63
                             2206.20  4289.50  4337.42  4364.42  4438.69
                             5528.21

 Zero-point correction=                           0.072811 (Hartree/Particle)
 Thermal correction to Energy=                    0.077798
 Thermal correction to Enthalpy=                  0.078742
 Thermal correction to Gibbs Free Energy=         0.045289
 Sum of electronic and zero-point Energies=           -254.207826
 Sum of electronic and thermal Energies=              -254.202839
 Sum of electronic and thermal Enthalpies=            -254.201895
 Sum of electronic and thermal Free Energies=         -254.235349

                     E (Thermal)             CV                S
                      KCal/Mol        Cal/Mol-Kelvin    Cal/Mol-Kelvin
 Total                   48.819             15.320             70.409
 Electronic               0.000              0.000              0.000
 Translational            0.889              2.981             38.389
 Rotational               0.889              2.981             24.084
 Vibrational             47.042              9.358              7.936
 Vibration     1          0.608              1.935              3.144
 Vibration     2          0.647              1.812              1.965
 Vibration     3          0.684              1.697              1.490
 Vibration     4          0.827              1.316              0.737

 Normal termination of Gaussian 16 at Thu Dec  5 18:23:59 2024.
