 Gaussian 16, Revision C.01,
 Gaussian 16:  ES64L-G16RevC.01  3-Jul-2019

 -------------------------
 # freq b3lyp/6-31g(2df,p)
 -------------------------

 -------------------------------------------------------------------
 energy: -15.614184499692 gnorm: 0.000439253721 xtb: 6.6.1 (8d0f1dd)
 -------------------------------------------------------------------
 Symbolic Z-matrix:
 Charge =  0 Multiplicity = 1

                         Standard orientation:
 ---------------------------------------------------------------------
 Center     Atomic      Atomic             Coordinates (Angstroms)
 Number     Number       Type             X           Y           Z
 ---------------------------------------------------------------------
      1          6           0        0.636225    0.472699   -0.357936
      2          1           0        0.447753    0.253316   -1.418802
      3          1           0        1.042982    1.495226   -0.291605
      4          6           0       -0.693599    0.427982    0.374909
      5          1           0       -1.185573    1.407429    0.324941
      6          1           0       -0.524728    0.163108    1.424978
      7          9           0       -1.539950   -0.498429   -0.198374
      8          8           0        1.515892   -0.461298    0.244357
      9          1           0        2.296222   -0.546923   -0.310838
 ---------------------------------------------------------------------

 SCF Done:  E(RB3LYP) =  -254.279771994     A.U. after   12 cycles

 The electronic state is 1-A.
 Alpha  occ. eigenvalues --  -24.66214 -19.14044 -10.25158 -10.23522  -1.17739
 Alpha  occ. eigenvalues --   -1.02205  -0.74974  -0.61940  -0.53162  -0.49724
 Alpha  occ. eigenvalues --   -0.45649  -0.45328  -0.42256  -0.36371  -0.33006
 Alpha  occ. eigenvalues --   -0.32030  -0.27440
 Alpha virt. eigenvalues --    0.07209   0.10926   0.12792   0.14821   0.16794
 Alpha virt. eigenvalues --    0.18914   0.21485   0.22537   0.44269   0.45331
 Alpha virt. eigenvalues --    0.49676   0.50574   0.58161   0.60984   0.66867

 Mulliken charges:
               1
     1  C   -0.081045
     2  H    0.105749
     3  H    0.087098
     4  C   -0.037443
     5  H    0.096177
     6  H    0.117350
     7  F   -0.160515
     8  O   -0.417323
     9  H    0.289952
 Sum of Mulliken charges =  -0.00000

 Dipole moment (field-independent basis, Debye):
    X=              1.4709    Y=              1.5936    Z=             -0.7105  Tot=              2.2821
 Quadrupole moment (field-independent basis, Debye-Ang):
   XX=            -22.4283   YY=            -23.6442   ZZ=            -22.8585
   XY=             -1.4026   XZ=             -3.2802   YZ=              0.5523

  Exact polarizability:      31.132      -1.567      27.432      -1.069      -0.196      26.988
 Approx polarizability:      38.774      -1.076      37.823       0.009      -0.362      37.119

                      1                      2                      3
                      A                      A                      A
 Frequencies --     84.7273               240.1444               352.7602
 Red. masses --      3.2384                 1.0992                 2.9503
 Frc consts  --      0.0137                 0.0373                 0.2163
 IR Inten    --      2.0686               114.6769                 3.4272

                      4                      5                      6
                      A                      A                      A
 Frequencies --    471.1607               871.7827               946.4734
 Red. masses --      2.3791                 2.4362                 2.1386
 Frc consts  --      0.3112                 1.0909                 1.1288
 IR Inten    --     15.7213                16.3827                56.2039

                      7                      8                      9
                      A                      A                      A
 Frequencies --   1061.6758              1112.9826              1116.2157
 Red. masses --      2.0711                 3.3383                 2.8913
 Frc consts  --      1.3754                 2.4364                 2.1225
 IR Inten    --     35.1310                48.6400                26.8779

                     10                     11                     12
                      A                      A                      A
 Frequencies --   1237.3219              1277.6468              1310.5049
 Red. masses --      1.1597                 1.1287                 1.1018
 Frc consts  --      1.0461                 1.0856                 1.1149
 IR Inten    --     13.1645                47.2481                10.8813

                     13                     14                     15
                      A                      A                      A
 Frequencies --   1414.9753              1465.1171              1501.4485
 Red. masses --      1.2613                 1.4939                 1.0927
 Frc consts  --      1.4878                 1.8894                 1.4513
 IR Inten    --      9.5402                 4.0639                 4.0203

                     16                     17                     18
                      A                      A                      A
 Frequencies --   1505.8518              2966.6834              3018.4608
 Red. masses --      1.0951                 1.0635                 1.0857
 Frc consts  --      1.4631                 5.5147                 5.8281
 IR Inten    --      6.1699                48.6583                18.2266

                     19                     20                     21
                      A                      A                      A
 Frequencies --   3030.6712              3081.8222              3833.2695
 Red. masses --      1.0691                 1.1066                 1.0664
 Frc consts  --      5.7856                 6.1922                 9.2319
 IR Inten    --     64.0983                36.3817                22.6302

 - Thermochemistry -
 -------------------
 Temperature   298.150 Kelvin.  Pressure   1.00000 Atm.
 Atom     1 has atomic number  6 and mass  12.00000

 Molecular mass:    64.03244 amu.
 Principal axes and moments of inertia in atomic units:
                           1         2         3
     Eigenvalues --    95.07923 392.38100 421.83788
           X            0.99917  -0.02288  -0.03367
           Y            0.02300   0.99973   0.00307
           Z            0.03359  -0.00384   0.99943
 This molecule is an asymmetric top.
 Rotational symmetry number  1.
 Rotational temperatures (Kelvin)      0.91097     0.22074     0.20533
 Rotational constants (GHZ):          18.98144     4.59946     4.27828
 Zero-point vibrational energy     190814.5 (Joules/Mol)
                                   45.60576 (Kcal/Mol)
 Warning -- explicit consideration of   4 degrees of freedom as
           vibrations may cause significant error
 Vibrational temperatures:    121.90   345.51   507.54   677.90  1254.30
          (Kelvin)           1361.76  1527.51  1601.33  1605.99  1780.23
                             1838.25  1885.52  2035.83  2107.98  2160.25
                             2166.58  4268.40  4342.89  4360.46  4434.05
                             5515.22

 Zero-point correction=                           0.072677 (Hartree/Particle)
 Thermal correction to Energy=                    0.077620
 Thermal correction to Enthalpy=                  0.078565
 Thermal correction to Gibbs Free Energy=         0.044957
 Sum of electronic and zero-point Energies=           -254.207095
 Sum of electronic and thermal Energies=              -254.202152
 Sum of electronic and thermal Enthalpies=            -254.201207
 Sum of electronic and thermal Free Energies=         -254.234815

                     E (Thermal)             CV                S
                      KCal/Mol        Cal/Mol-Kelvin    Cal/Mol-Kelvin
 Total                   48.708             15.231             70.734
 Electronic               0.000              0.000              0.000
 Translational            0.889              2.981             38.389
 Rotational               0.889              2.981             24.268
 Vibrational             46.930              9.269              8.076
 Vibration     1          0.601              1.960              3.778
 Vibration     2          0.657              1.779              1.802
 Vibration     3          0.729              1.570              1.154
 Vibration     4          0.828              1.314              0.734

 Normal termination of Gaussian 16 at Thu Dec  5 18:22:52 2024.
