 Gaussian 16, Revision C.01,
 Gaussian 16:  ES64L-G16RevC.01  3-Jul-2019

 -------------------------
 # freq b3lyp/6-31g(2df,p)
 -------------------------

 -------------------------------------------------------------------
 energy: -15.614184499692 gnorm: 0.000439253721 xtb: 6.6.1 (8d0f1dd)
 -------------------------------------------------------------------
 Symbolic Z-matrix:
 Charge =  0 Multiplicity = 1

                         Standard orientation:
 ---------------------------------------------------------------------
 Center     Atomic      Atomic             Coordinates (Angstroms)
 Number     Number       Type             X           Y           Z
 ---------------------------------------------------------------------
      1          6           0       -0.636783    0.473250   -0.357205
      2          1           0       -1.043370    1.495663   -0.288136
      3          1           0       -0.450103    0.256095   -1.418854
      4          6           0        0.693810    0.428244    0.374108
      5          1           0        0.525308    0.164244    1.424499
      6          1           0        1.185396    1.407830    0.323375
      7          9           0        1.540156   -0.498766   -0.198221
      8          8           0       -1.515627   -0.461988    0.244108
      9          1           0       -2.295781   -0.548001   -0.311180
 ---------------------------------------------------------------------

 SCF Done:  E(RB3LYP) =  -254.279790444     A.U. after   12 cycles

 The electronic state is 1-A.
 Alpha  occ. eigenvalues --  -24.66217 -19.14043 -10.25160 -10.23525  -1.17739
 Alpha  occ. eigenvalues --   -1.02209  -0.74980  -0.61939  -0.53164  -0.49725
 Alpha  occ. eigenvalues --   -0.45651  -0.45331  -0.42260  -0.36372  -0.33007
 Alpha  occ. eigenvalues --   -0.32029  -0.27441
 Alpha virt. eigenvalues --    0.07209   0.10929   0.12789   0.14826   0.16797
 Alpha virt. eigenvalues --    0.18910   0.21483   0.22538   0.44275   0.45326
 Alpha virt. eigenvalues --    0.49679   0.50564   0.58161   0.60970   0.66860

 Mulliken charges:
               1
     1  C   -0.081117
     2  H    0.087111
     3  H    0.105691
     4  C   -0.037425
     5  H    0.117286
     6  H    0.096178
     7  F   -0.160441
     8  O   -0.417260
     9  H    0.289976
 Sum of Mulliken charges =  -0.00000

 Dipole moment (field-independent basis, Debye):
    X=             -1.4719    Y=              1.5947    Z=             -0.7112  Tot=              2.2837
 Quadrupole moment (field-independent basis, Debye-Ang):
   XX=            -22.4283   YY=            -23.6438   ZZ=            -22.8592
   XY=              1.4045   XZ=              3.2794   YZ=              0.5537

  Exact polarizability:      31.131       1.567      27.440       1.071      -0.194      26.985
 Approx polarizability:      38.772       1.075      37.837      -0.003      -0.359      37.114

                      1                      2                      3
                      A                      A                      A
 Frequencies --     85.5062               237.9608               352.0279
 Red. masses --      3.2371                 1.0990                 2.9517
 Frc consts  --      0.0139                 0.0367                 0.2155
 IR Inten    --      2.0763               114.6922                 3.3902

                      4                      5                      6
                      A                      A                      A
 Frequencies --    470.9073               871.7242               946.0229
 Red. masses --      2.3766                 2.4393                 2.1366
 Frc consts  --      0.3105                 1.0921                 1.1266
 IR Inten    --     15.7229                16.4341                56.0240

                      7                      8                      9
                      A                      A                      A
 Frequencies --   1061.8255              1112.9603              1116.5476
 Red. masses --      2.0674                 3.3545                 2.8897
 Frc consts  --      1.3733                 2.4481                 2.1226
 IR Inten    --     35.1262                48.5164                27.3889

                     10                     11                     12
                      A                      A                      A
 Frequencies --   1237.3237              1277.8429              1310.8408
 Red. masses --      1.1603                 1.1287                 1.1013
 Frc consts  --      1.0467                 1.0859                 1.1149
 IR Inten    --     13.3910                47.0454                10.7867

                     13                     14                     15
                      A                      A                      A
 Frequencies --   1415.1920              1465.0957              1501.3714
 Red. masses --      1.2612                 1.4938                 1.0926
 Frc consts  --      1.4882                 1.8891                 1.4510
 IR Inten    --      9.5677                 4.0868                 4.1487

                     16                     17                     18
                      A                      A                      A
 Frequencies --   1505.7712              2966.6630              3018.3808
 Red. masses --      1.0955                 1.0635                 1.0857
 Frc consts  --      1.4634                 5.5146                 5.8280
 IR Inten    --      6.0722                48.6588                18.1910

                     19                     20                     21
                      A                      A                      A
 Frequencies --   3030.6738              3081.5476              3834.0117
 Red. masses --      1.0690                 1.1066                 1.0664
 Frc consts  --      5.7849                 6.1915                 9.2355
 IR Inten    --     64.0513                36.5645                22.6979

 - Thermochemistry -
 -------------------
 Temperature   298.150 Kelvin.  Pressure   1.00000 Atm.
 Atom     1 has atomic number  6 and mass  12.00000

 Molecular mass:    64.03244 amu.
 Principal axes and moments of inertia in atomic units:
                           1         2         3
     Eigenvalues --    95.11497 392.35064 421.98988
           X            0.99917   0.02289   0.03364
           Y           -0.02301   0.99973   0.00318
           Z           -0.03356  -0.00396   0.99943
 This molecule is an asymmetric top.
 Rotational symmetry number  1.
 Rotational temperatures (Kelvin)      0.91062     0.22076     0.20525
 Rotational constants (GHZ):          18.97431     4.59982     4.27674
 Zero-point vibrational energy     190805.6 (Joules/Mol)
                                   45.60362 (Kcal/Mol)
 Warning -- explicit consideration of   4 degrees of freedom as
           vibrations may cause significant error
 Vibrational temperatures:    123.02   342.37   506.49   677.53  1254.22
          (Kelvin)           1361.12  1527.73  1601.30  1606.46  1780.23
                             1838.53  1886.01  2036.15  2107.95  2160.14
                             2166.47  4268.37  4342.78  4360.46  4433.66
                             5516.29

 Zero-point correction=                           0.072674 (Hartree/Particle)
 Thermal correction to Energy=                    0.077620
 Thermal correction to Enthalpy=                  0.078564
 Thermal correction to Gibbs Free Energy=         0.044955
 Sum of electronic and zero-point Energies=           -254.207116
 Sum of electronic and thermal Energies=              -254.202171
 Sum of electronic and thermal Enthalpies=            -254.201227
 Sum of electronic and thermal Free Energies=         -254.234836

                     E (Thermal)             CV                S
                      KCal/Mol        Cal/Mol-Kelvin    Cal/Mol-Kelvin
 Total                   48.707             15.236             70.737
 Electronic               0.000              0.000              0.000
 Translational            0.889              2.981             38.389
 Rotational               0.889              2.981             24.269
 Vibrational             46.930              9.274              8.078
 Vibration     1          0.601              1.959              3.760
 Vibration     2          0.656              1.783              1.818
 Vibration     3          0.729              1.571              1.157
 Vibration     4          0.828              1.315              0.735

 Normal termination of Gaussian 16 at Thu Dec  5 18:23:40 2024.
