 Gaussian 16, Revision C.01,
 Gaussian 16:  ES64L-G16RevC.01  3-Jul-2019

 -------------------------
 # freq b3lyp/6-31g(2df,p)
 -------------------------

 -------------------------------------------------------------------
 energy: -15.614184499692 gnorm: 0.000439253721 xtb: 6.6.1 (8d0f1dd)
 -------------------------------------------------------------------
 Symbolic Z-matrix:
 Charge =  0 Multiplicity = 1

                         Standard orientation:
 ---------------------------------------------------------------------
 Center     Atomic      Atomic             Coordinates (Angstroms)
 Number     Number       Type             X           Y           Z
 ---------------------------------------------------------------------
      1          6           0        0.660292    0.545070   -0.295401
      2          1           0        0.568398    0.489747   -1.390795
      3          1           0        1.109827    1.520739   -0.043935
      4          6           0       -0.726756    0.496643    0.307767
      5          1           0       -1.271024    1.418203    0.063816
      6          1           0       -0.655056    0.399966    1.398188
      7          9           0       -1.431375   -0.579383   -0.184053
      8          8           0        1.411746   -0.533397    0.227426
      9          1           0        2.235043   -0.597314   -0.264403
 ---------------------------------------------------------------------

 SCF Done:  E(RB3LYP) =  -254.281187766     A.U. after   12 cycles

 The electronic state is 1-A.
 Alpha  occ. eigenvalues --  -24.66174 -19.13976 -10.25188 -10.23543  -1.17749
 Alpha  occ. eigenvalues --   -1.02207  -0.75121  -0.61816  -0.53201  -0.49776
 Alpha  occ. eigenvalues --   -0.45930  -0.45062  -0.42287  -0.36375  -0.33015
 Alpha  occ. eigenvalues --   -0.31808  -0.27497
 Alpha virt. eigenvalues --    0.07182   0.11531   0.12628   0.15801   0.16587
 Alpha virt. eigenvalues --    0.18062   0.20774   0.22666   0.44130   0.46315
 Alpha virt. eigenvalues --    0.49441   0.50453   0.56972   0.60688   0.65903

 Mulliken charges:
               1
     1  C   -0.082616
     2  H    0.100585
     3  H    0.086220
     4  C   -0.034584
     5  H    0.096001
     6  H    0.111652
     7  F   -0.156165
     8  O   -0.412222
     9  H    0.291129
 Sum of Mulliken charges =  -0.00000

 Dipole moment (field-independent basis, Debye):
    X=              1.4797    Y=              1.8980    Z=             -0.6384  Tot=              2.4899
 Quadrupole moment (field-independent basis, Debye-Ang):
   XX=            -21.5224   YY=            -23.8087   ZZ=            -23.0184
   XY=             -1.5017   XZ=             -2.7892   YZ=              0.5314

  Exact polarizability:      30.891      -1.580      28.105      -1.043      -0.193      26.816
 Approx polarizability:      38.317      -0.942      39.048      -0.293      -0.368      36.807

                      1                      2                      3
                      A                      A                      A
 Frequencies --    150.4815               219.1777               325.8631
 Red. masses --      4.0902                 1.0974                 2.4969
 Frc consts  --      0.0546                 0.0311                 0.1562
 IR Inten    --      3.9596               109.5529                 5.6075

                      4                      5                      6
                      A                      A                      A
 Frequencies --    494.4671               883.3061               910.2226
 Red. masses --      2.3072                 2.4901                 1.9480
 Frc consts  --      0.3324                 1.1447                 0.9509
 IR Inten    --     15.9751                14.2599                42.0651

                      7                      8                      9
                      A                      A                      A
 Frequencies --   1084.0191              1109.4858              1132.1735
 Red. masses --      2.1585                 3.4732                 2.7751
 Frc consts  --      1.4944                 2.5190                 2.0958
 IR Inten    --     61.3810                30.9771                43.0701

                     10                     11                     12
                      A                      A                      A
 Frequencies --   1244.1680              1269.8338              1316.4016
 Red. masses --      1.1662                 1.1195                 1.1027
 Frc consts  --      1.0636                 1.0635                 1.1259
 IR Inten    --     17.2220                22.9551                23.1108

                     13                     14                     15
                      A                      A                      A
 Frequencies --   1423.0943              1468.4376              1499.7837
 Red. masses --      1.2716                 1.5440                 1.0899
 Frc consts  --      1.5173                 1.9616                 1.4444
 IR Inten    --     11.6331                 3.2946                 6.8222

                     16                     17                     18
                      A                      A                      A
 Frequencies --   1506.1686              2962.0643              3006.7215
 Red. masses --      1.1002                 1.0614                 1.0933
 Frc consts  --      1.4705                 5.4866                 5.8236
 IR Inten    --      3.3978                49.6694                28.4002

                     19                     20                     21
                      A                      A                      A
 Frequencies --   3024.5240              3073.2381              3838.6410
 Red. masses --      1.0617                 1.1077                 1.0665
 Frc consts  --      5.7224                 6.1639                 9.2588
 IR Inten    --     57.7062                45.4383                24.5197

 - Thermochemistry -
 -------------------
 Temperature   298.150 Kelvin.  Pressure   1.00000 Atm.
 Atom     1 has atomic number  6 and mass  12.00000

 Molecular mass:    64.03244 amu.
 Principal axes and moments of inertia in atomic units:
                           1         2         3
     Eigenvalues --   106.61012 351.98447 404.56404
           X            0.99904  -0.02985  -0.03209
           Y            0.02990   0.99955   0.00102
           Z            0.03205  -0.00198   0.99948
 This molecule is an asymmetric top.
 Rotational symmetry number  1.
 Rotational temperatures (Kelvin)      0.81244     0.24607     0.21409
 Rotational constants (GHZ):          16.92842     5.12733     4.46095
 Zero-point vibrational energy     191057.2 (Joules/Mol)
                                   45.66377 (Kcal/Mol)
 Warning -- explicit consideration of   4 degrees of freedom as
           vibrations may cause significant error
 Vibrational temperatures:    216.51   315.35   468.84   711.43  1270.88
          (Kelvin)           1309.61  1559.66  1596.30  1628.95  1790.08
                             1827.01  1894.01  2047.52  2112.75  2157.85
                             2167.04  4261.75  4326.00  4351.62  4421.70
                             5522.95

 Zero-point correction=                           0.072770 (Hartree/Particle)
 Thermal correction to Energy=                    0.077634
 Thermal correction to Enthalpy=                  0.078579
 Thermal correction to Gibbs Free Energy=         0.045407
 Sum of electronic and zero-point Energies=           -254.208418
 Sum of electronic and thermal Energies=              -254.203553
 Sum of electronic and thermal Enthalpies=            -254.202609
 Sum of electronic and thermal Free Energies=         -254.235780

                     E (Thermal)             CV                S
                      KCal/Mol        Cal/Mol-Kelvin    Cal/Mol-Kelvin
 Total                   48.716             15.203             69.815
 Electronic               0.000              0.000              0.000
 Translational            0.889              2.981             38.389
 Rotational               0.889              2.981             24.233
 Vibrational             46.939              9.241              7.193
 Vibration     1          0.618              1.902              2.666
 Vibration     2          0.647              1.812              1.966
 Vibration     3          0.710              1.624              1.281
 Vibration     4          0.850              1.262              0.672

 Normal termination of Gaussian 16 at Thu Dec  5 18:22:50 2024.
