 Gaussian 16, Revision C.01,
 Gaussian 16:  ES64L-G16RevC.01  3-Jul-2019

 -------------------------
 # freq b3lyp/6-31g(2df,p)
 -------------------------

 -------------------------------------------------------------------
 energy: -15.614184499692 gnorm: 0.000439253721 xtb: 6.6.1 (8d0f1dd)
 -------------------------------------------------------------------
 Symbolic Z-matrix:
 Charge =  0 Multiplicity = 1

                         Standard orientation:
 ---------------------------------------------------------------------
 Center     Atomic      Atomic             Coordinates (Angstroms)
 Number     Number       Type             X           Y           Z
 ---------------------------------------------------------------------
      1          6           0        0.688042    0.600239   -0.220713
      2          1           0        0.720655    0.717568   -1.316060
      3          1           0        1.148950    1.498170    0.223871
      4          6           0       -0.760887    0.546193    0.231826
      5          1           0       -1.317661    1.391151   -0.193285
      6          1           0       -0.813844    0.601831    1.326923
      7          9           0       -1.343463   -0.636390   -0.156100
      8          8           0        1.319750   -0.598589    0.177564
      9          1           0        2.232143   -0.571095   -0.123736
 ---------------------------------------------------------------------

 SCF Done:  E(RB3LYP) =  -254.279375426     A.U. after   12 cycles

 The electronic state is 1-A.
 Alpha  occ. eigenvalues --  -24.66159 -19.13921 -10.25244 -10.23561  -1.17786
 Alpha  occ. eigenvalues --   -1.02184  -0.75007  -0.61746  -0.53100  -0.49738
 Alpha  occ. eigenvalues --   -0.46319  -0.44773  -0.42321  -0.36222  -0.32875
 Alpha  occ. eigenvalues --   -0.31713  -0.27368
 Alpha virt. eigenvalues --    0.06900   0.11263   0.12906   0.15097   0.16470
 Alpha virt. eigenvalues --    0.18620   0.21609   0.23081   0.43427   0.47291
 Alpha virt. eigenvalues --    0.49038   0.50439   0.55662   0.60301   0.65568

 Mulliken charges:
               1
     1  C   -0.088957
     2  H    0.094965
     3  H    0.088259
     4  C   -0.037563
     5  H    0.098334
     6  H    0.105983
     7  F   -0.147945
     8  O   -0.404609
     9  H    0.291534
 Sum of Mulliken charges =  -0.00000

 Dipole moment (field-independent basis, Debye):
    X=              1.5650    Y=              2.2264    Z=             -0.3512  Tot=              2.7440
 Quadrupole moment (field-independent basis, Debye-Ang):
   XX=            -20.3884   YY=            -24.0760   ZZ=            -23.2680
   XY=             -1.3188   XZ=             -1.7500   YZ=              0.3293

  Exact polarizability:      30.980      -1.396      28.397      -0.778      -0.288      26.450
 Approx polarizability:      38.270      -0.523      39.811      -0.211      -0.443      36.043

                      1                      2                      3
                      A                      A                      A
 Frequencies --    148.0318               228.8279               301.2441
 Red. masses --      2.9802                 1.1508                 2.9537
 Frc consts  --      0.0385                 0.0355                 0.1579
 IR Inten    --     11.8864               101.7486                 5.6901

                      4                      5                      6
                      A                      A                      A
 Frequencies --    523.7635               880.1677               899.5904
 Red. masses --      2.5208                 1.7711                 2.4008
 Frc consts  --      0.4074                 0.8084                 1.1447
 IR Inten    --     17.4633                20.8234                21.1300

                      7                      8                      9
                      A                      A                      A
 Frequencies --   1095.4768              1112.3856              1154.5725
 Red. masses --      3.0077                 3.2243                 2.3102
 Frc consts  --      2.1266                 2.3507                 1.8144
 IR Inten    --     64.3789                57.2101                29.9675

                     10                     11                     12
                      A                      A                      A
 Frequencies --   1231.8220              1269.9008              1318.6783
 Red. masses --      1.1388                 1.1398                 1.1142
 Frc consts  --      1.0181                 1.0830                 1.1415
 IR Inten    --     30.2146                 3.4396                22.1212

                     13                     14                     15
                      A                      A                      A
 Frequencies --   1429.5748              1472.1853              1503.0240
 Red. masses --      1.2719                 1.5225                 1.0882
 Frc consts  --      1.5315                 1.9442                 1.4484
 IR Inten    --     13.6839                 1.4154                 4.9478

                     16                     17                     18
                      A                      A                      A
 Frequencies --   1512.7263              2962.2271              2990.7081
 Red. masses --      1.0896                 1.0552                 1.1023
 Frc consts  --      1.4691                 5.4556                 5.8088
 IR Inten    --      2.8705                49.4959                37.6273

                     19                     20                     21
                      A                      A                      A
 Frequencies --   3020.8544              3066.5285              3837.2546
 Red. masses --      1.0585                 1.1087                 1.0665
 Frc consts  --      5.6910                 6.1425                 9.2524
 IR Inten    --     56.8668                53.5811                25.2439

 - Thermochemistry -
 -------------------
 Temperature   298.150 Kelvin.  Pressure   1.00000 Atm.
 Atom     1 has atomic number  6 and mass  12.00000

 Molecular mass:    64.03244 amu.
 Principal axes and moments of inertia in atomic units:
                           1         2         3
     Eigenvalues --   114.89590 320.64045 394.32738
           X            0.99908  -0.03460  -0.02531
           Y            0.03455   0.99940  -0.00256
           Z            0.02538   0.00168   0.99968
 This molecule is an asymmetric top.
 Rotational symmetry number  1.
 Rotational temperatures (Kelvin)      0.75385     0.27013     0.21965
 Rotational constants (GHZ):          15.70762     5.62855     4.57676
 Zero-point vibrational energy     191160.5 (Joules/Mol)
                                   45.68846 (Kcal/Mol)
 Warning -- explicit consideration of   4 degrees of freedom as
           vibrations may cause significant error
 Vibrational temperatures:    212.98   329.23   433.42   753.58  1266.37
          (Kelvin)           1294.31  1576.15  1600.47  1661.17  1772.32
                             1827.10  1897.28  2056.84  2118.15  2162.52
                             2176.48  4261.98  4302.96  4346.34  4412.05
                             5520.95

 Zero-point correction=                           0.072809 (Hartree/Particle)
 Thermal correction to Energy=                    0.077672
 Thermal correction to Enthalpy=                  0.078616
 Thermal correction to Gibbs Free Energy=         0.045460
 Sum of electronic and zero-point Energies=           -254.206566
 Sum of electronic and thermal Energies=              -254.201703
 Sum of electronic and thermal Enthalpies=            -254.200759
 Sum of electronic and thermal Free Energies=         -254.233915

                     E (Thermal)             CV                S
                      KCal/Mol        Cal/Mol-Kelvin    Cal/Mol-Kelvin
 Total                   48.740             15.163             69.783
 Electronic               0.000              0.000              0.000
 Translational            0.889              2.981             38.389
 Rotational               0.889              2.981             24.189
 Vibrational             46.962              9.201              7.205
 Vibration     1          0.617              1.905              2.697
 Vibration     2          0.652              1.797              1.888
 Vibration     3          0.693              1.671              1.410
 Vibration     4          0.879              1.197              0.601

 Normal termination of Gaussian 16 at Thu Dec  5 18:22:45 2024.
