 Gaussian 16, Revision C.01,
 Gaussian 16:  ES64L-G16RevC.01  3-Jul-2019

 -------------------------
 # freq b3lyp/6-31g(2df,p)
 -------------------------

 -------------------------------------------------------------------
 energy: -15.614184499692 gnorm: 0.000439253721 xtb: 6.6.1 (8d0f1dd)
 -------------------------------------------------------------------
 Symbolic Z-matrix:
 Charge =  0 Multiplicity = 1

                         Standard orientation:
 ---------------------------------------------------------------------
 Center     Atomic      Atomic             Coordinates (Angstroms)
 Number     Number       Type             X           Y           Z
 ---------------------------------------------------------------------
      1          6           0       -0.673987    0.575682   -0.258430
      2          1           0       -1.133241    1.515938    0.091120
      3          1           0       -0.642201    0.607307   -1.358950
      4          6           0        0.744049    0.523893    0.270841
      5          1           0        0.732851    0.503680    1.368049
      6          1           0        1.299653    1.409012   -0.065125
      7          9           0        1.382612   -0.610927   -0.172761
      8          8           0       -1.361169   -0.568754    0.205859
      9          1           0       -2.231588   -0.585011   -0.201580
 ---------------------------------------------------------------------

 SCF Done:  E(RB3LYP) =  -254.280714304     A.U. after   12 cycles

 The electronic state is 1-A.
 Alpha  occ. eigenvalues --  -24.66158 -19.13946 -10.25211 -10.23551  -1.17759
 Alpha  occ. eigenvalues --   -1.02198  -0.75099  -0.61767  -0.53168  -0.49767
 Alpha  occ. eigenvalues --   -0.46121  -0.44893  -0.42315  -0.36338  -0.32959
 Alpha  occ. eigenvalues --   -0.31697  -0.27475
 Alpha virt. eigenvalues --    0.07069   0.11422   0.12831   0.15729   0.16427
 Alpha virt. eigenvalues --    0.18170   0.20986   0.22832   0.43787   0.46902
 Alpha virt. eigenvalues --    0.49207   0.50444   0.56289   0.60553   0.65675

 Mulliken charges:
               1
     1  C   -0.085592
     2  H    0.086917
     3  H    0.097611
     4  C   -0.035323
     5  H    0.108703
     6  H    0.097012
     7  F   -0.152461
     8  O   -0.408353
     9  H    0.291485
 Sum of Mulliken charges =  -0.00000

 Dipole moment (field-independent basis, Debye):
    X=             -1.5248    Y=              2.0788    Z=             -0.5107  Tot=              2.6282
 Quadrupole moment (field-independent basis, Debye-Ang):
   XX=            -20.9061   YY=            -23.9485   ZZ=            -23.1545
   XY=              1.4100   XZ=              2.3196   YZ=              0.4380

  Exact polarizability:      30.915       1.488      28.295       0.945      -0.242      26.646
 Approx polarizability:      38.275       0.727      39.498       0.314      -0.423      36.447

                      1                      2                      3
                      A                      A                      A
 Frequencies --    156.2740               222.4176               314.8152
 Red. masses --      3.6481                 1.1370                 2.5229
 Frc consts  --      0.0525                 0.0331                 0.1473
 IR Inten    --     10.0604               102.4402                 6.8696

                      4                      5                      6
                      A                      A                      A
 Frequencies --    507.9563               885.6460               900.0661
 Red. masses --      2.3721                 2.1812                 2.0490
 Frc consts  --      0.3606                 1.0080                 0.9780
 IR Inten    --     16.5327                14.8561                34.4445

                      7                      8                      9
                      A                      A                      A
 Frequencies --   1091.1586              1110.3403              1143.1197
 Red. masses --      2.5391                 3.2449                 2.5410
 Frc consts  --      1.7812                 2.3570                 1.9563
 IR Inten    --     70.8994                35.5956                37.5511

                     10                     11                     12
                      A                      A                      A
 Frequencies --   1242.2017              1265.2811              1318.4811
 Red. masses --      1.1532                 1.1295                 1.1083
 Frc consts  --      1.0484                 1.0654                 1.1351
 IR Inten    --     28.4034                 7.2700                24.0156

                     13                     14                     15
                      A                      A                      A
 Frequencies --   1426.5232              1470.7283              1500.5084
 Red. masses --      1.2732                 1.5438                 1.0895
 Frc consts  --      1.5266                 1.9675                 1.4452
 IR Inten    --     12.6801                 2.3199                 6.0722

                     16                     17                     18
                      A                      A                      A
 Frequencies --   1508.7292              2961.9423              2997.6310
 Red. masses --      1.0956                 1.0583                 1.0984
 Frc consts  --      1.4693                 5.4701                 5.8150
 IR Inten    --      3.2175                49.1777                34.6553

                     19                     20                     21
                      A                      A                      A
 Frequencies --   3022.4910              3069.6858              3837.9550
 Red. masses --      1.0592                 1.1084                 1.0665
 Frc consts  --      5.7013                 6.1536                 9.2558
 IR Inten    --     55.6723                49.8790                25.0347

 - Thermochemistry -
 -------------------
 Temperature   298.150 Kelvin.  Pressure   1.00000 Atm.
 Atom     1 has atomic number  6 and mass  12.00000

 Molecular mass:    64.03244 amu.
 Principal axes and moments of inertia in atomic units:
                           1         2         3
     Eigenvalues --   111.28632 334.38721 398.11952
           X            0.99904   0.03245   0.02936
           Y           -0.03243   0.99947  -0.00101
           Z           -0.02937   0.00006   0.99957
 This molecule is an asymmetric top.
 Rotational symmetry number  1.
 Rotational temperatures (Kelvin)      0.77830     0.25902     0.21756
 Rotational constants (GHZ):          16.21710     5.39716     4.53316
 Zero-point vibrational energy     191127.1 (Joules/Mol)
                                   45.68047 (Kcal/Mol)
 Warning -- explicit consideration of   4 degrees of freedom as
           vibrations may cause significant error
 Vibrational temperatures:    224.84   320.01   452.95   730.84  1274.25
          (Kelvin)           1294.99  1569.93  1597.53  1644.69  1787.25
                             1820.46  1897.00  2052.45  2116.05  2158.90
                             2170.72  4261.57  4312.92  4348.69  4416.59
                             5521.96

 Zero-point correction=                           0.072796 (Hartree/Particle)
 Thermal correction to Energy=                    0.077649
 Thermal correction to Enthalpy=                  0.078593
 Thermal correction to Gibbs Free Energy=         0.045470
 Sum of electronic and zero-point Energies=           -254.207918
 Sum of electronic and thermal Energies=              -254.203065
 Sum of electronic and thermal Enthalpies=            -254.202121
 Sum of electronic and thermal Free Energies=         -254.235245

                     E (Thermal)             CV                S
                      KCal/Mol        Cal/Mol-Kelvin    Cal/Mol-Kelvin
 Total                   48.726             15.178             69.715
 Electronic               0.000              0.000              0.000
 Translational            0.889              2.981             38.389
 Rotational               0.889              2.981             24.208
 Vibrational             46.948              9.216              7.117
 Vibration     1          0.620              1.896              2.594
 Vibration     2          0.648              1.807              1.939
 Vibration     3          0.702              1.645              1.337
 Vibration     4          0.863              1.232              0.639

 Normal termination of Gaussian 16 at Thu Dec  5 18:22:50 2024.
