 Gaussian 16, Revision C.01,
 Gaussian 16:  ES64L-G16RevC.01  3-Jul-2019

 -------------------------
 # freq b3lyp/6-31g(2df,p)
 -------------------------

 -------------------------------------------------------------------
 energy: -15.614184499692 gnorm: 0.000439253721 xtb: 6.6.1 (8d0f1dd)
 -------------------------------------------------------------------
 Symbolic Z-matrix:
 Charge =  0 Multiplicity = 1

                         Standard orientation:
 ---------------------------------------------------------------------
 Center     Atomic      Atomic             Coordinates (Angstroms)
 Number     Number       Type             X           Y           Z
 ---------------------------------------------------------------------
      1          6           0       -0.560342    0.496998    0.102818
      2          1           0       -0.602412    1.058414    1.047444
      3          1           0       -0.372279    1.217417   -0.708275
      4          6           0        0.600643   -0.490059    0.117895
      5          1           0        0.444580   -1.227281   -0.678856
      6          1           0        0.676676   -1.017563    1.075349
      7          9           0        1.778973    0.185764   -0.117736
      8          8           0       -1.737926   -0.258312   -0.123580
      9          1           0       -2.495713    0.321990   -0.011672
 ---------------------------------------------------------------------

 SCF Done:  E(RB3LYP) =  -254.279919063     A.U. after   11 cycles

 The electronic state is 1-A.
 Alpha  occ. eigenvalues --  -24.66710 -19.14464 -10.25122 -10.23457  -1.18187
 Alpha  occ. eigenvalues --   -1.02589  -0.74641  -0.62111  -0.52961  -0.49977
 Alpha  occ. eigenvalues --   -0.46252  -0.45420  -0.42282  -0.36509  -0.32996
 Alpha  occ. eigenvalues --   -0.32188  -0.27702
 Alpha virt. eigenvalues --    0.06244   0.10659   0.14471   0.14768   0.15693
 Alpha virt. eigenvalues --    0.19983   0.21827   0.25051   0.42838   0.46894
 Alpha virt. eigenvalues --    0.49215   0.51583   0.53670   0.63229   0.65695

 Mulliken charges:
               1
     1  C   -0.098417
     2  H    0.097213
     3  H    0.101722
     4  C   -0.043715
     5  H    0.115093
     6  H    0.107448
     7  F   -0.156047
     8  O   -0.417065
     9  H    0.293767
 Sum of Mulliken charges =  -0.00000

 Dipole moment (field-independent basis, Debye):
    X=             -1.5846    Y=              0.7462    Z=              0.6042  Tot=              1.8528
 Quadrupole moment (field-independent basis, Debye-Ang):
   XX=            -23.8311   YY=            -22.9762   ZZ=            -23.1472
   XY=             -3.8794   XZ=             -0.2490   YZ=             -0.0438

  Exact polarizability:      31.348      -0.665      27.762       0.051       0.170      25.810
 Approx polarizability:      39.753       1.285      37.728      -0.243       0.415      35.112

                      1                      2                      3
                      A                      A                      A
 Frequencies --     98.6254               225.8873               302.2269
 Red. masses --      3.2457                 1.1043                 3.4266
 Frc consts  --      0.0186                 0.0332                 0.1844
 IR Inten    --      8.6496               107.1975                17.4959

                      4                      5                      6
                      A                      A                      A
 Frequencies --    467.9864               821.6651              1016.6586
 Red. masses --      7.3211                 1.1278                 2.6380
 Frc consts  --      0.9447                 0.4486                 1.6065
 IR Inten    --      1.3346                 1.3034                37.8116

                      7                      8                      9
                      A                      A                      A
 Frequencies --   1088.8110              1098.8191              1165.3112
 Red. masses --      7.6236                 4.4965                 1.5651
 Frc consts  --      5.3249                 3.1988                 1.2522
 IR Inten    --    125.8348                39.6069                 0.5371

                     10                     11                     12
                      A                      A                      A
 Frequencies --   1237.3035              1253.7374              1295.2135
 Red. masses --      1.1562                 1.1637                 1.0935
 Frc consts  --      1.0429                 1.0777                 1.0808
 IR Inten    --      2.8835                35.9977                 4.8269

                     13                     14                     15
                      A                      A                      A
 Frequencies --   1397.7569              1473.8773              1516.2519
 Red. masses --      1.2765                 1.5156                 1.0819
 Frc consts  --      1.4694                 1.9397                 1.4654
 IR Inten    --      8.0365                 4.1652                 0.1535

                     16                     17                     18
                      A                      A                      A
 Frequencies --   1531.5918              2982.2241              3017.2601
 Red. masses --      1.0865                 1.0557                 1.1053
 Frc consts  --      1.5017                 5.5317                 5.9288
 IR Inten    --      4.2663                47.4344                36.9778

                     19                     20                     21
                      A                      A                      A
 Frequencies --   3033.4937              3085.5061              3841.0923
 Red. masses --      1.0557                 1.1103                 1.0666
 Frc consts  --      5.7239                 6.2278                 9.2715
 IR Inten    --     38.3220                54.1093                27.7848

 - Thermochemistry -
 -------------------
 Temperature   298.150 Kelvin.  Pressure   1.00000 Atm.
 Atom     1 has atomic number  6 and mass  12.00000

 Molecular mass:    64.03244 amu.
 Principal axes and moments of inertia in atomic units:
                           1         2         3
     Eigenvalues --    59.92810 456.56186 487.69859
           X            0.99952  -0.03101   0.00204
           Y            0.03101   0.99952  -0.00014
           Z           -0.00203   0.00020   1.00000
 This molecule is an asymmetric top.
 Rotational symmetry number  1.
 Rotational temperatures (Kelvin)      1.44530     0.18971     0.17760
 Rotational constants (GHZ):          30.11511     3.95290     3.70053
 Zero-point vibrational energy     191111.2 (Joules/Mol)
                                   45.67668 (Kcal/Mol)
 Warning -- explicit consideration of   4 degrees of freedom as
           vibrations may cause significant error
 Vibrational temperatures:    141.90   325.00   434.84   673.33  1182.19
          (Kelvin)           1462.74  1566.56  1580.96  1676.62  1780.20
                             1803.85  1863.52  2011.06  2120.58  2181.55
                             2203.62  4290.76  4341.16  4364.52  4439.36
                             5526.48

 Zero-point correction=                           0.072790 (Hartree/Particle)
 Thermal correction to Energy=                    0.077786
 Thermal correction to Enthalpy=                  0.078730
 Thermal correction to Gibbs Free Energy=         0.045169
 Sum of electronic and zero-point Energies=           -254.207129
 Sum of electronic and thermal Energies=              -254.202133
 Sum of electronic and thermal Enthalpies=            -254.201189
 Sum of electronic and thermal Free Energies=         -254.234750

                     E (Thermal)             CV                S
                      KCal/Mol        Cal/Mol-Kelvin    Cal/Mol-Kelvin
 Total                   48.812             15.310             70.637
 Electronic               0.000              0.000              0.000
 Translational            0.889              2.981             38.389
 Rotational               0.889              2.981             24.104
 Vibrational             47.034              9.348              8.143
 Vibration     1          0.604              1.950              3.481
 Vibration     2          0.650              1.802              1.911
 Vibration     3          0.694              1.669              1.405
 Vibration     4          0.825              1.321              0.743

 Normal termination of Gaussian 16 at Thu Dec  5 18:23:59 2024.
