 Gaussian 16, Revision C.01,
 Gaussian 16:  ES64L-G16RevC.01  3-Jul-2019

 -------------------------
 # freq b3lyp/6-31g(2df,p)
 -------------------------

 -------------------------------------------------------------------
 energy: -15.614184499692 gnorm: 0.000439253721 xtb: 6.6.1 (8d0f1dd)
 -------------------------------------------------------------------
 Symbolic Z-matrix:
 Charge =  0 Multiplicity = 1

                         Standard orientation:
 ---------------------------------------------------------------------
 Center     Atomic      Atomic             Coordinates (Angstroms)
 Number     Number       Type             X           Y           Z
 ---------------------------------------------------------------------
      1          6           0       -0.625586    0.437721   -0.378937
      2          1           0       -1.000654    1.473580   -0.391011
      3          1           0       -0.403121    0.147821   -1.415822
      4          6           0        0.678417    0.382589    0.408427
      5          1           0        0.475040    0.011773    1.419249
      6          1           0        1.130870    1.379374    0.475259
      7          9           0        1.591861   -0.448141   -0.208541
      8          8           0       -1.563047   -0.427094    0.241554
      9          1           0       -2.341488   -0.484382   -0.320175
 ---------------------------------------------------------------------

 SCF Done:  E(RB3LYP) =  -254.278503814     A.U. after   12 cycles

 The electronic state is 1-A.
 Alpha  occ. eigenvalues --  -24.66247 -19.14080 -10.25146 -10.23506  -1.17753
 Alpha  occ. eigenvalues --   -1.02214  -0.74830  -0.62003  -0.53110  -0.49695
 Alpha  occ. eigenvalues --   -0.45579  -0.45392  -0.42266  -0.36369  -0.32965
 Alpha  occ. eigenvalues --   -0.32067  -0.27412
 Alpha virt. eigenvalues --    0.07129   0.10490   0.13088   0.14494   0.16552
 Alpha virt. eigenvalues --    0.19509   0.22129   0.22612   0.43637   0.45612
 Alpha virt. eigenvalues --    0.49598   0.50622   0.58114   0.61626   0.67671

 Mulliken charges:
               1
     1  C   -0.082572
     2  H    0.088418
     3  H    0.107481
     4  C   -0.039944
     5  H    0.119746
     6  H    0.097341
     7  F   -0.161445
     8  O   -0.418485
     9  H    0.289462
 Sum of Mulliken charges =  -0.00000

 Dipole moment (field-independent basis, Debye):
    X=             -1.4939    Y=              1.4781    Z=             -0.6851  Tot=              2.2104
 Quadrupole moment (field-independent basis, Debye-Ang):
   XX=            -22.7152   YY=            -23.6026   ZZ=            -22.8311
   XY=              1.1758   XZ=              3.4280   YZ=              0.4967

  Exact polarizability:      31.295       1.433      27.030       1.087      -0.234      27.029
 Approx polarizability:      39.053       0.997      37.153      -0.154      -0.417      37.143

 ******    1 imaginary frequencies (negative Signs) ******

                      1                      2                      3
                      A                      A                      A
 Frequencies --    -67.1631               253.1291               373.5791
 Red. masses --      2.9619                 1.1011                 3.3178
 Frc consts  --      0.0079                 0.0416                 0.2728
 IR Inten    --      2.4046               115.8151                 2.8970

                      4                      5                      6
                      A                      A                      A
 Frequencies --    456.7019               866.5040               969.9096
 Red. masses --      2.4820                 2.2611                 2.3049
 Frc consts  --      0.3050                 1.0003                 1.2775
 IR Inten    --     15.7485                15.4357                69.2147

                      7                      8                      9
                      A                      A                      A
 Frequencies --   1046.1390              1110.8725              1119.4531
 Red. masses --      2.1729                 3.0632                 2.9433
 Frc consts  --      1.4011                 2.2272                 2.1732
 IR Inten    --     24.6051                34.4553                35.1669

                     10                     11                     12
                      A                      A                      A
 Frequencies --   1236.3010              1275.2046              1303.5694
 Red. masses --      1.1513                 1.1262                 1.1079
 Frc consts  --      1.0368                 1.0790                 1.1092
 IR Inten    --     14.4937                52.4178                 6.6231

                     13                     14                     15
                      A                      A                      A
 Frequencies --   1410.6916              1464.6385              1502.2966
 Red. masses --      1.2573                 1.4633                 1.0936
 Frc consts  --      1.4742                 1.8495                 1.4542
 IR Inten    --      8.5829                 3.9593                 1.7012

                     16                     17                     18
                      A                      A                      A
 Frequencies --   1508.5382              2971.5170              3020.3908
 Red. masses --      1.0880                 1.0629                 1.0871
 Frc consts  --      1.4587                 5.5296                 5.8434
 IR Inten    --      7.8550                48.0519                16.7788

                     19                     20                     21
                      A                      A                      A
 Frequencies --   3034.0004              3084.8803              3831.0168
 Red. masses --      1.0686                 1.1069                 1.0663
 Frc consts  --      5.7955                 6.2066                 9.2205
 IR Inten    --     63.5736                34.1781                21.8278

 - Thermochemistry -
 -------------------
 Temperature   298.150 Kelvin.  Pressure   1.00000 Atm.
 Atom     1 has atomic number  6 and mass  12.00000

 Molecular mass:    64.03244 amu.
 Principal axes and moments of inertia in atomic units:
                           1         2         3
     Eigenvalues --    88.90364 412.41978 430.54224
           X            0.99925   0.01874   0.03382
           Y           -0.01878   0.99982   0.00084
           Z           -0.03380  -0.00147   0.99943
 This molecule is an asymmetric top.
 Rotational symmetry number  1.
 Rotational temperatures (Kelvin)      0.97424     0.21001     0.20117
 Rotational constants (GHZ):          20.29997     4.37598     4.19179
    1 imaginary frequencies ignored.
 Zero-point vibrational energy     190441.5 (Joules/Mol)
                                   45.51661 (Kcal/Mol)
 Warning -- explicit consideration of   3 degrees of freedom as
           vibrations may cause significant error
 Vibrational temperatures:    364.20   537.50   657.09  1246.71  1395.48
          (Kelvin)           1505.16  1598.30  1610.64  1778.76  1834.74
                             1875.55  2029.67  2107.29  2161.47  2170.45
                             4275.35  4345.67  4365.25  4438.45  5511.98

 Zero-point correction=                           0.072535 (Hartree/Particle)
 Thermal correction to Energy=                    0.076685
 Thermal correction to Enthalpy=                  0.077629
 Thermal correction to Gibbs Free Energy=         0.045882
 Sum of electronic and zero-point Energies=           -254.205968
 Sum of electronic and thermal Energies=              -254.201819
 Sum of electronic and thermal Enthalpies=            -254.200875
 Sum of electronic and thermal Free Energies=         -254.232622

                     E (Thermal)             CV                S
                      KCal/Mol        Cal/Mol-Kelvin    Cal/Mol-Kelvin
 Total                   48.120             13.238             66.817
 Electronic               0.000              0.000              0.000
 Translational            0.889              2.981             38.389
 Rotational               0.889              2.981             24.271
 Vibrational             46.343              7.276              4.156
 Vibration     1          0.664              1.758              1.709
 Vibration     2          0.745              1.526              1.065
 Vibration     3          0.815              1.346              0.776

 Normal termination of Gaussian 16 at Thu Dec  5 18:23:43 2024.
